/*--------------------------------*- C++ -*----------------------------------*\
  =========                 |
  \\      /  F ield         | OpenFOAM: The Open Source CFD Toolbox
   \\    /   O peration     | Website:  https://openfoam.org
    \\  /    A nd           | Version:  6
     \\/     M anipulation  |
\*---------------------------------------------------------------------------*/
FoamFile
{
    version     2.0;
    format      ascii;
    class       volVectorField;
    location    "100";
    object      U;
}
// * * * * * * * * * * * * * * * * * * * * * * * * * * * * * * * * * * * * * //

dimensions      [0 1 -1 0 0 0 0];

internalField   nonuniform List<vector> 
64000
(
(0.00475652 -0.0116974 1.5532e-10)
(0.0084688 -0.0357719 1.57006e-10)
(0.0157539 -0.0584874 1.57138e-10)
(0.0262302 -0.0789838 1.55696e-10)
(0.0393418 -0.0965179 1.52618e-10)
(0.0543859 -0.11048 1.47593e-10)
(0.0705447 -0.120422 1.40595e-10)
(0.0869233 -0.126083 1.31706e-10)
(0.102593 -0.127401 1.21413e-10)
(0.116641 -0.124523 1.10124e-10)
(0.128216 -0.117801 9.82622e-11)
(0.136589 -0.107777 8.60446e-11)
(0.1412 -0.0951606 7.36126e-11)
(0.141703 -0.0807834 6.10242e-11)
(0.138008 -0.0655541 4.84542e-11)
(0.130299 -0.0503948 3.61499e-11)
(0.119042 -0.036172 2.45319e-11)
(0.104958 -0.0236245 1.41252e-11)
(0.0889662 -0.0132996 5.4932e-12)
(0.0721026 -0.0055061 -8.05255e-13)
(0.0554094 -0.000295521 -4.39305e-12)
(0.039829 0.00252394 -5.0273e-12)
(0.00475652 -0.0116973 4.72765e-10)
(0.0084688 -0.0357718 -3.10673e-10)
(0.0157539 -0.0584874 -1.1393e-09)
(0.0262302 -0.0789838 -2.06116e-09)
(0.0393418 -0.0965178 -3.1382e-09)
(0.0543859 -0.11048 -4.44339e-09)
(0.0705447 -0.120422 -6.04754e-09)
(0.0869233 -0.126083 -8.0163e-09)
(0.102593 -0.127401 -1.04071e-08)
(0.11664 -0.124523 -1.32656e-08)
(0.128216 -0.117801 -1.66213e-08)
(0.136589 -0.107777 -2.04815e-08)
(0.1412 -0.0951605 -2.48185e-08)
(0.141703 -0.0807833 -2.95553e-08)
(0.138008 -0.065554 -3.45609e-08)
(0.130299 -0.0503948 -3.96527e-08)
(0.119042 -0.036172 -4.46015e-08)
(0.104958 -0.0236245 -4.91413e-08)
(0.0889661 -0.0132996 -5.29847e-08)
(0.0721024 -0.00550609 -5.58458e-08)
(0.0554093 -0.000295521 -5.74666e-08)
(0.0398289 0.00252393 -5.76422e-08)
(0.00475652 -0.0116973 3.12636e-10)
(0.0084688 -0.0357718 4.73424e-11)
(0.0157539 -0.0584874 -2.21595e-10)
(0.0262302 -0.0789838 -4.97906e-10)
(0.0393418 -0.0965178 -7.85243e-10)
(0.0543859 -0.11048 -1.08708e-09)
(0.0705447 -0.120422 -1.40654e-09)
(0.0869233 -0.126083 -1.74623e-09)
(0.102593 -0.127401 -2.10799e-09)
(0.11664 -0.124523 -2.49257e-09)
(0.128216 -0.117801 -2.89945e-09)
(0.136589 -0.107777 -3.32656e-09)
(0.1412 -0.0951605 -3.77001e-09)
(0.141703 -0.0807833 -4.22432e-09)
(0.138008 -0.065554 -4.68255e-09)
(0.130299 -0.0503948 -5.13634e-09)
(0.119042 -0.036172 -5.57604e-09)
(0.104958 -0.0236245 -5.99098e-09)
(0.0889661 -0.0132996 -6.36976e-09)
(0.0721024 -0.00550609 -6.70067e-09)
(0.0554092 -0.000295522 -6.97182e-09)
(0.0398289 0.00252393 -7.17037e-09)
(0.00475652 -0.0116973 1.88537e-10)
(0.0084688 -0.0357718 -3.08041e-10)
(0.0157539 -0.0584874 -8.01178e-10)
(0.0262302 -0.0789838 -1.29494e-09)
(0.0393418 -0.0965178 -1.79318e-09)
(0.0543859 -0.11048 -2.29924e-09)
(0.0705446 -0.120422 -2.8157e-09)
(0.0869233 -0.126083 -3.34411e-09)
(0.102593 -0.127401 -3.8845e-09)
(0.11664 -0.124523 -4.43505e-09)
(0.128216 -0.117801 -4.99154e-09)
(0.136589 -0.107777 -5.54708e-09)
(0.1412 -0.0951605 -6.09142e-09)
(0.141703 -0.0807833 -6.61105e-09)
(0.138008 -0.065554 -7.08909e-09)
(0.130299 -0.0503948 -7.50596e-09)
(0.119042 -0.036172 -7.84066e-09)
(0.104958 -0.0236245 -8.07259e-09)
(0.0889661 -0.0132996 -8.18401e-09)
(0.0721024 -0.00550609 -8.16243e-09)
(0.0554092 -0.000295522 -8.00242e-09)
(0.0398289 0.00252393 -7.70573e-09)
(0.00475652 -0.0116973 -1.2568e-10)
(0.0084688 -0.0357718 -2.34739e-10)
(0.0157539 -0.0584874 -3.38949e-10)
(0.0262302 -0.0789838 -4.38432e-10)
(0.0393418 -0.0965178 -5.33479e-10)
(0.0543859 -0.11048 -6.2433e-10)
(0.0705446 -0.120422 -7.11068e-10)
(0.0869233 -0.126083 -7.93559e-10)
(0.102593 -0.127401 -8.71399e-10)
(0.11664 -0.124523 -9.43894e-10)
(0.128216 -0.117801 -1.01005e-09)
(0.136589 -0.107777 -1.06871e-09)
(0.1412 -0.0951605 -1.1184e-09)
(0.141703 -0.0807833 -1.15766e-09)
(0.138008 -0.065554 -1.18509e-09)
(0.130299 -0.0503948 -1.19955e-09)
(0.119042 -0.036172 -1.20024e-09)
(0.104958 -0.0236245 -1.18681e-09)
(0.0889661 -0.0132996 -1.15943e-09)
(0.0721024 -0.00550609 -1.11874e-09)
(0.0554092 -0.000295522 -1.0657e-09)
(0.0398289 0.00252393 -1.00109e-09)
(0.00475652 -0.0116973 -2.43542e-10)
(0.0084688 -0.0357718 -2.44384e-10)
(0.0157539 -0.0584874 -2.42988e-10)
(0.0262302 -0.0789838 -2.39305e-10)
(0.0393418 -0.0965178 -2.33534e-10)
(0.0543859 -0.11048 -2.2595e-10)
(0.0705446 -0.120422 -2.16812e-10)
(0.0869233 -0.126083 -2.06347e-10)
(0.102593 -0.127401 -1.9475e-10)
(0.11664 -0.124523 -1.822e-10)
(0.128216 -0.117801 -1.68871e-10)
(0.136589 -0.107777 -1.55023e-10)
(0.1412 -0.0951605 -1.40877e-10)
(0.141703 -0.0807833 -1.26744e-10)
(0.138008 -0.065554 -1.12981e-10)
(0.130299 -0.0503948 -1.00028e-10)
(0.119042 -0.036172 -8.83822e-11)
(0.104958 -0.0236245 -7.85643e-11)
(0.0889661 -0.0132996 -7.10633e-11)
(0.0721024 -0.00550609 -6.62784e-11)
(0.0554093 -0.000295522 -6.4459e-11)
(0.0398289 0.00252393 -6.5664e-11)
(0.00475652 -0.0116973 -2.52281e-10)
(0.0084688 -0.0357718 -1.44584e-10)
(0.0157539 -0.0584874 -3.78665e-11)
(0.0262302 -0.0789838 6.80533e-11)
(0.0393418 -0.0965178 1.73085e-10)
(0.0543859 -0.11048 2.76945e-10)
(0.0705446 -0.120422 3.7921e-10)
(0.0869233 -0.126083 4.79295e-10)
(0.102593 -0.127401 5.76421e-10)
(0.11664 -0.124523 6.69571e-10)
(0.128216 -0.117801 7.57472e-10)
(0.136589 -0.107777 8.38576e-10)
(0.1412 -0.0951605 9.11107e-10)
(0.141703 -0.0807833 9.73154e-10)
(0.138008 -0.065554 1.02279e-09)
(0.130299 -0.0503948 1.05819e-09)
(0.119042 -0.036172 1.07776e-09)
(0.104958 -0.0236245 1.08029e-09)
(0.0889661 -0.0132996 1.0651e-09)
(0.0721024 -0.00550609 1.03217e-09)
(0.0554092 -0.000295522 9.8201e-10)
(0.0398289 0.00252393 9.15284e-10)
(0.00475652 -0.0116973 -2.7572e-10)
(0.0084688 -0.0357718 2.20245e-10)
(0.0157539 -0.0584874 7.13474e-10)
(0.0262302 -0.0789838 1.20809e-09)
(0.0393418 -0.0965178 1.70793e-09)
(0.0543859 -0.11048 2.21628e-09)
(0.0705446 -0.120422 2.73565e-09)
(0.0869233 -0.126083 3.26747e-09)
(0.102593 -0.127401 3.81168e-09)
(0.11664 -0.124523 4.36637e-09)
(0.128216 -0.117801 4.9273e-09)
(0.136589 -0.107777 5.48751e-09)
(0.1412 -0.0951605 6.03677e-09)
(0.141703 -0.0807833 6.56151e-09)
(0.138008 -0.065554 7.04479e-09)
(0.130299 -0.0503948 7.46686e-09)
(0.119042 -0.036172 7.80645e-09)
(0.104958 -0.0236245 8.04269e-09)
(0.0889661 -0.0132996 8.15747e-09)
(0.0721024 -0.00550609 8.13802e-09)
(0.0554092 -0.000295522 7.97866e-09)
(0.0398289 0.00252393 7.68106e-09)
(0.00475652 -0.0116973 -9.00017e-11)
(0.0084688 -0.0357718 1.74966e-10)
(0.0157539 -0.0584874 4.41265e-10)
(0.0262302 -0.0789838 7.12581e-10)
(0.0393418 -0.0965178 9.93011e-10)
(0.0543859 -0.11048 1.28686e-09)
(0.0705447 -0.120422 1.5978e-09)
(0.0869233 -0.126083 1.92878e-09)
(0.102593 -0.127401 2.28154e-09)
(0.11664 -0.124523 2.65676e-09)
(0.128216 -0.117801 3.05376e-09)
(0.136589 -0.107777 3.47064e-09)
(0.1412 -0.0951605 3.90368e-09)
(0.141703 -0.0807833 4.34779e-09)
(0.138008 -0.065554 4.79638e-09)
(0.130299 -0.0503948 5.24154e-09)
(0.119042 -0.036172 5.67398e-09)
(0.104958 -0.0236245 6.08338e-09)
(0.0889661 -0.0132996 6.45859e-09)
(0.0721024 -0.00550609 6.78804e-09)
(0.0554092 -0.000295522 7.0599e-09)
(0.0398289 0.00252393 7.26118e-09)
(0.00475652 -0.0116973 -1.42041e-10)
(0.0084688 -0.0357718 6.42853e-10)
(0.0157539 -0.0584874 1.47e-09)
(0.0262302 -0.0789838 2.38732e-09)
(0.0393418 -0.0965178 3.45699e-09)
(0.0543859 -0.11048 4.7523e-09)
(0.0705447 -0.120422 6.3444e-09)
(0.0869233 -0.126083 8.29928e-09)
(0.102593 -0.127401 1.06747e-08)
(0.11664 -0.124523 1.35165e-08)
(0.128216 -0.117801 1.68544e-08)
(0.136589 -0.107777 2.06961e-08)
(0.1412 -0.0951605 2.50141e-08)
(0.141703 -0.0807833 2.97316e-08)
(0.138008 -0.065554 3.47182e-08)
(0.130299 -0.0503948 3.97919e-08)
(0.119042 -0.036172 4.47241e-08)
(0.104958 -0.0236245 4.92497e-08)
(0.0889661 -0.0132996 5.30823e-08)
(0.0721024 -0.00550609 5.59365e-08)
(0.0554093 -0.000295521 5.75548e-08)
(0.0398289 0.00252393 5.77325e-08)
(0.0219038 -0.0289853 4.36376e-10)
(0.0308486 -0.087656 4.46941e-10)
(0.048408 -0.143271 4.55953e-10)
(0.0737564 -0.193902 4.62841e-10)
(0.105685 -0.237841 4.66867e-10)
(0.142652 -0.27365 4.67075e-10)
(0.182835 -0.300218 4.62917e-10)
(0.224212 -0.316815 4.54144e-10)
(0.264634 -0.323137 4.41072e-10)
(0.301924 -0.319328 4.24023e-10)
(0.333985 -0.305987 4.03337e-10)
(0.358909 -0.284163 3.79153e-10)
(0.375097 -0.255317 3.51994e-10)
(0.381386 -0.221256 3.21618e-10)
(0.377152 -0.184043 2.88455e-10)
(0.362408 -0.145873 2.53179e-10)
(0.337852 -0.108925 2.1693e-10)
(0.304877 -0.0751853 1.81269e-10)
(0.265493 -0.0462834 1.48034e-10)
(0.222172 -0.0233351 1.19196e-10)
(0.17761 -0.00684534 9.64832e-11)
(0.134454 0.00332063 8.12509e-11)
(0.0219038 -0.0289852 1.72804e-09)
(0.0308486 -0.0876558 -3.05102e-10)
(0.0484079 -0.143271 -2.41595e-09)
(0.0737564 -0.193902 -4.72063e-09)
(0.105685 -0.237841 -7.35491e-09)
(0.142652 -0.27365 -1.04789e-08)
(0.182835 -0.300217 -1.42541e-08)
(0.224212 -0.316815 -1.88364e-08)
(0.264633 -0.323137 -2.43709e-08)
(0.301924 -0.319327 -3.09846e-08)
(0.333985 -0.305987 -3.87774e-08)
(0.358909 -0.284163 -4.78102e-08)
(0.375097 -0.255316 -5.80739e-08)
(0.381386 -0.221256 -6.94588e-08)
(0.377152 -0.184043 -8.1729e-08)
(0.362407 -0.145873 -9.45168e-08)
(0.337852 -0.108924 -1.07321e-07)
(0.304877 -0.0751852 -1.19515e-07)
(0.265493 -0.0462834 -1.30375e-07)
(0.222171 -0.0233351 -1.39118e-07)
(0.17761 -0.00684533 -1.44974e-07)
(0.134454 0.00332062 -1.47248e-07)
(0.0219038 -0.0289852 1.11506e-09)
(0.0308486 -0.0876559 4.35325e-10)
(0.0484079 -0.143271 -2.53813e-10)
(0.0737564 -0.193902 -9.62151e-10)
(0.105685 -0.237841 -1.6983e-09)
(0.142652 -0.27365 -2.47027e-09)
(0.182835 -0.300217 -3.2853e-09)
(0.224212 -0.316815 -4.1497e-09)
(0.264633 -0.323137 -5.06841e-09)
(0.301924 -0.319327 -6.04448e-09)
(0.333985 -0.305987 -7.07855e-09)
(0.358909 -0.284163 -8.16817e-09)
(0.375097 -0.255316 -9.30709e-09)
(0.381386 -0.221256 -1.04852e-08)
(0.377152 -0.184043 -1.16887e-08)
(0.362407 -0.145873 -1.28998e-08)
(0.337852 -0.108924 -1.40964e-08)
(0.304877 -0.0751852 -1.52529e-08)
(0.265493 -0.0462834 -1.63401e-08)
(0.222171 -0.0233351 -1.73258e-08)
(0.17761 -0.00684534 -1.81752e-08)
(0.134454 0.00332061 -1.8848e-08)
(0.0219038 -0.0289852 6.64188e-10)
(0.0308486 -0.0876558 -5.83221e-10)
(0.0484079 -0.143271 -1.8246e-09)
(0.0737564 -0.193902 -3.06948e-09)
(0.105685 -0.237841 -4.32651e-09)
(0.142651 -0.27365 -5.60317e-09)
(0.182835 -0.300217 -6.90544e-09)
(0.224212 -0.316815 -8.23721e-09)
(0.264633 -0.323137 -9.59949e-09)
(0.301924 -0.319327 -1.09895e-08)
(0.333985 -0.305987 -1.23998e-08)
(0.358909 -0.284163 -1.38169e-08)
(0.375097 -0.255316 -1.52205e-08)
(0.381386 -0.221255 -1.65813e-08)
(0.377152 -0.184043 -1.7862e-08)
(0.362407 -0.145873 -1.90166e-08)
(0.337852 -0.108924 -1.99929e-08)
(0.304877 -0.0751852 -2.0736e-08)
(0.265493 -0.0462834 -2.11934e-08)
(0.222171 -0.0233351 -2.13216e-08)
(0.17761 -0.00684534 -2.10919e-08)
(0.134454 0.00332061 -2.04922e-08)
(0.0219038 -0.0289852 -3.75643e-10)
(0.0308486 -0.0876558 -6.59094e-10)
(0.0484079 -0.143271 -9.32773e-10)
(0.0737564 -0.193902 -1.19651e-09)
(0.105685 -0.237841 -1.45055e-09)
(0.142651 -0.27365 -1.69503e-09)
(0.182835 -0.300217 -1.92977e-09)
(0.224212 -0.316815 -2.15412e-09)
(0.264633 -0.323137 -2.36689e-09)
(0.301924 -0.319327 -2.56625e-09)
(0.333985 -0.305987 -2.74974e-09)
(0.358909 -0.284163 -2.91441e-09)
(0.375097 -0.255316 -3.05724e-09)
(0.381386 -0.221255 -3.17395e-09)
(0.377152 -0.184043 -3.26085e-09)
(0.362407 -0.145873 -3.31451e-09)
(0.337852 -0.108924 -3.33215e-09)
(0.304877 -0.0751852 -3.312e-09)
(0.265493 -0.0462834 -3.25349e-09)
(0.222171 -0.0233351 -3.15733e-09)
(0.17761 -0.00684534 -3.02517e-09)
(0.134454 0.00332061 -2.85838e-09)
(0.0219038 -0.0289852 -7.51401e-10)
(0.0308486 -0.0876558 -7.57238e-10)
(0.0484079 -0.143271 -7.5847e-10)
(0.0737564 -0.193902 -7.54358e-10)
(0.105685 -0.237841 -7.44954e-10)
(0.142651 -0.27365 -7.30584e-10)
(0.182835 -0.300217 -7.11638e-10)
(0.224212 -0.316815 -6.88484e-10)
(0.264633 -0.323137 -6.61458e-10)
(0.301924 -0.319327 -6.30885e-10)
(0.333985 -0.305987 -5.97101e-10)
(0.358909 -0.284163 -5.60585e-10)
(0.375097 -0.255316 -5.22232e-10)
(0.381386 -0.221255 -4.82401e-10)
(0.377152 -0.184043 -4.42018e-10)
(0.362407 -0.145873 -4.02178e-10)
(0.337852 -0.108924 -3.64207e-10)
(0.304877 -0.0751852 -3.29611e-10)
(0.265493 -0.0462834 -2.99961e-10)
(0.222171 -0.0233351 -2.76737e-10)
(0.17761 -0.00684534 -2.61145e-10)
(0.134454 0.00332061 -2.5394e-10)
(0.0219038 -0.0289852 -7.78565e-10)
(0.0308486 -0.0876558 -5.05716e-10)
(0.0484079 -0.143271 -2.35018e-10)
(0.0737564 -0.193902 3.44374e-11)
(0.105685 -0.237841 3.02744e-10)
(0.142651 -0.27365 5.69447e-10)
(0.182835 -0.300217 8.33679e-10)
(0.224212 -0.316815 1.09416e-09)
(0.264633 -0.323137 1.34915e-09)
(0.301924 -0.319327 1.59633e-09)
(0.333985 -0.305987 1.83278e-09)
(0.358909 -0.284163 2.0549e-09)
(0.375097 -0.255316 2.25833e-09)
(0.381386 -0.221255 2.43837e-09)
(0.377152 -0.184043 2.58995e-09)
(0.362407 -0.145873 2.70791e-09)
(0.337852 -0.108924 2.78735e-09)
(0.304877 -0.0751852 2.82396e-09)
(0.265493 -0.0462834 2.81453e-09)
(0.222171 -0.0233351 2.75721e-09)
(0.17761 -0.00684534 2.65153e-09)
(0.134454 0.00332061 2.49751e-09)
(0.0219038 -0.0289852 -9.01232e-10)
(0.0308486 -0.0876558 3.39968e-10)
(0.0484079 -0.143271 1.5755e-09)
(0.0737564 -0.193902 2.81518e-09)
(0.105685 -0.237841 4.06795e-09)
(0.142651 -0.27365 5.34151e-09)
(0.182835 -0.300217 6.64202e-09)
(0.224212 -0.316815 7.97355e-09)
(0.264633 -0.323137 9.33727e-09)
(0.301924 -0.319327 1.07306e-08)
(0.333985 -0.305987 1.21462e-08)
(0.358909 -0.284163 1.35708e-08)
(0.375097 -0.255316 1.49839e-08)
(0.381386 -0.221255 1.63564e-08)
(0.377152 -0.184043 1.76508e-08)
(0.362407 -0.145873 1.88208e-08)
(0.337852 -0.108924 1.98134e-08)
(0.304877 -0.0751852 2.05727e-08)
(0.265493 -0.0462834 2.10453e-08)
(0.222171 -0.0233351 2.11865e-08)
(0.17761 -0.00684534 2.09665e-08)
(0.134454 0.00332061 2.03726e-08)
(0.0219038 -0.0289852 -3.97242e-10)
(0.0308486 -0.0876559 2.82525e-10)
(0.0484079 -0.143271 9.6563e-10)
(0.0737564 -0.193902 1.66136e-09)
(0.105685 -0.237841 2.37922e-09)
(0.142652 -0.27365 3.12875e-09)
(0.182835 -0.300217 3.91845e-09)
(0.224212 -0.316815 4.75549e-09)
(0.264633 -0.323137 5.64505e-09)
(0.301924 -0.319327 6.59036e-09)
(0.333985 -0.305987 7.59215e-09)
(0.358909 -0.284163 8.6485e-09)
(0.375097 -0.255316 9.75398e-09)
(0.381386 -0.221256 1.08992e-08)
(0.377152 -0.184043 1.20712e-08)
(0.362407 -0.145873 1.32532e-08)
(0.337852 -0.108924 1.44243e-08)
(0.304877 -0.0751852 1.55597e-08)
(0.265493 -0.0462834 1.6631e-08)
(0.222171 -0.0233351 1.76067e-08)
(0.17761 -0.00684534 1.84524e-08)
(0.134454 0.00332061 1.91276e-08)
(0.0219038 -0.0289852 -7.39596e-10)
(0.0308486 -0.0876558 1.30559e-09)
(0.0484079 -0.143271 3.42352e-09)
(0.0737564 -0.193902 5.72928e-09)
(0.105685 -0.237841 8.35842e-09)
(0.142652 -0.27365 1.14712e-08)
(0.182835 -0.300217 1.52291e-08)
(0.224212 -0.316815 1.97885e-08)
(0.264633 -0.323137 2.52946e-08)
(0.301924 -0.319327 3.18745e-08)
(0.333985 -0.305987 3.96281e-08)
(0.358909 -0.284163 4.86169e-08)
(0.375097 -0.255316 5.88328e-08)
(0.381386 -0.221256 7.01661e-08)
(0.377152 -0.184043 8.23822e-08)
(0.362407 -0.145873 9.51148e-08)
(0.337852 -0.108924 1.07865e-07)
(0.304877 -0.0751852 1.20008e-07)
(0.265493 -0.0462834 1.30823e-07)
(0.222171 -0.0233351 1.3953e-07)
(0.17761 -0.00684533 1.4536e-07)
(0.134454 0.00332062 1.47622e-07)
(0.0535244 -0.040704 6.46191e-10)
(0.0657504 -0.122091 6.62345e-10)
(0.0897691 -0.19957 6.76892e-10)
(0.124555 -0.270666 6.89072e-10)
(0.168605 -0.333157 6.97871e-10)
(0.219986 -0.385129 7.02039e-10)
(0.276394 -0.425046 7.00733e-10)
(0.335232 -0.451827 6.93472e-10)
(0.393694 -0.46489 6.80407e-10)
(0.448875 -0.4642 6.61756e-10)
(0.497886 -0.450292 6.37763e-10)
(0.537988 -0.424271 6.0829e-10)
(0.56674 -0.387791 5.74527e-10)
(0.582158 -0.343015 5.35679e-10)
(0.582886 -0.292518 4.91878e-10)
(0.568352 -0.239161 4.43692e-10)
(0.538892 -0.185917 3.92335e-10)
(0.495838 -0.135666 3.39725e-10)
(0.441509 -0.0909589 2.88399e-10)
(0.379094 -0.0537794 2.41348e-10)
(0.31239 -0.0253516 2.01566e-10)
(0.245444 -0.00601265 1.71726e-10)
(0.0535244 -0.0407038 2.74532e-09)
(0.0657504 -0.122091 -2.99486e-10)
(0.089769 -0.19957 -3.42314e-09)
(0.124555 -0.270666 -6.77656e-09)
(0.168605 -0.333157 -1.0529e-08)
(0.219986 -0.385128 -1.48823e-08)
(0.276394 -0.425046 -2.00449e-08)
(0.335232 -0.451827 -2.62246e-08)
(0.393694 -0.46489 -3.36235e-08)
(0.448875 -0.4642 -4.24307e-08)
(0.497885 -0.450292 -5.28127e-08)
(0.537987 -0.424271 -6.49025e-08)
(0.56674 -0.387791 -7.87618e-08)
(0.582157 -0.343015 -9.43372e-08)
(0.582886 -0.292518 -1.11415e-07)
(0.568351 -0.239161 -1.29601e-07)
(0.538891 -0.185917 -1.483e-07)
(0.495837 -0.135666 -1.66707e-07)
(0.441508 -0.0909588 -1.83816e-07)
(0.379094 -0.0537793 -1.98458e-07)
(0.312389 -0.0253516 -2.09378e-07)
(0.245443 -0.00601265 -2.15341e-07)
(0.0535244 -0.0407038 1.68061e-09)
(0.0657504 -0.122091 7.09114e-10)
(0.089769 -0.19957 -2.72384e-10)
(0.124555 -0.270666 -1.27833e-09)
(0.168605 -0.333157 -2.32088e-09)
(0.219986 -0.385128 -3.41127e-09)
(0.276394 -0.425046 -4.55994e-09)
(0.335232 -0.451827 -5.77637e-09)
(0.393694 -0.46489 -7.06876e-09)
(0.448875 -0.4642 -8.4434e-09)
(0.497885 -0.450292 -9.90407e-09)
(0.537987 -0.424271 -1.14512e-08)
(0.56674 -0.387791 -1.3081e-08)
(0.582157 -0.343015 -1.47845e-08)
(0.582886 -0.292518 -1.65478e-08)
(0.568351 -0.239161 -1.83511e-08)
(0.538891 -0.185917 -2.01682e-08)
(0.495837 -0.135666 -2.19659e-08)
(0.441508 -0.0909588 -2.37037e-08)
(0.379094 -0.0537793 -2.53341e-08)
(0.312389 -0.0253516 -2.68014e-08)
(0.245443 -0.00601266 -2.80378e-08)
(0.0535244 -0.0407038 1.10957e-09)
(0.0657504 -0.122091 -6.6186e-10)
(0.089769 -0.19957 -2.42548e-09)
(0.124555 -0.270666 -4.19472e-09)
(0.168605 -0.333157 -5.98165e-09)
(0.219986 -0.385128 -7.79691e-09)
(0.276394 -0.425046 -9.64945e-09)
(0.335232 -0.451827 -1.15459e-08)
(0.393694 -0.46489 -1.34897e-08)
(0.448875 -0.4642 -1.54797e-08)
(0.497885 -0.450292 -1.75095e-08)
(0.537987 -0.42427 -1.95648e-08)
(0.56674 -0.38779 -2.1624e-08)
(0.582157 -0.343015 -2.36514e-08)
(0.582886 -0.292518 -2.56001e-08)
(0.568351 -0.239161 -2.74094e-08)
(0.538891 -0.185917 -2.90061e-08)
(0.495837 -0.135666 -3.03079e-08)
(0.441508 -0.0909588 -3.123e-08)
(0.379094 -0.0537793 -3.16932e-08)
(0.312389 -0.0253516 -3.16342e-08)
(0.245443 -0.00601266 -3.10108e-08)
(0.0535244 -0.0407038 -4.96304e-10)
(0.0657504 -0.122091 -9.03387e-10)
(0.089769 -0.19957 -1.29884e-09)
(0.124555 -0.270666 -1.68222e-09)
(0.168605 -0.333157 -2.05376e-09)
(0.219986 -0.385128 -2.41362e-09)
(0.276394 -0.425046 -2.76158e-09)
(0.335232 -0.451827 -3.09685e-09)
(0.393694 -0.46489 -3.41793e-09)
(0.448875 -0.4642 -3.72248e-09)
(0.497885 -0.450292 -4.00726e-09)
(0.537987 -0.42427 -4.26803e-09)
(0.56674 -0.38779 -4.50148e-09)
(0.582157 -0.343015 -4.7009e-09)
(0.582886 -0.292518 -4.86031e-09)
(0.568351 -0.239161 -4.97381e-09)
(0.538891 -0.185917 -5.03608e-09)
(0.495837 -0.135666 -5.04283e-09)
(0.441508 -0.0909588 -4.99129e-09)
(0.379094 -0.0537793 -4.88053e-09)
(0.312389 -0.0253516 -4.71123e-09)
(0.245443 -0.00601266 -4.48407e-09)
(0.0535244 -0.0407038 -1.08843e-09)
(0.0657504 -0.122091 -1.09902e-09)
(0.089769 -0.19957 -1.10482e-09)
(0.124555 -0.270666 -1.10426e-09)
(0.168605 -0.333157 -1.09702e-09)
(0.219986 -0.385128 -1.08327e-09)
(0.276394 -0.425046 -1.06334e-09)
(0.335232 -0.451827 -1.03752e-09)
(0.393694 -0.46489 -1.00611e-09)
(0.448875 -0.4642 -9.69369e-10)
(0.497885 -0.450292 -9.27559e-10)
(0.537987 -0.42427 -8.80947e-10)
(0.56674 -0.38779 -8.31151e-10)
(0.582157 -0.343015 -7.78144e-10)
(0.582886 -0.292518 -7.22843e-10)
(0.568351 -0.239161 -6.66557e-10)
(0.538891 -0.185917 -6.11008e-10)
(0.495837 -0.135666 -5.58327e-10)
(0.441508 -0.0909588 -5.10953e-10)
(0.379094 -0.0537793 -4.71435e-10)
(0.312389 -0.0253516 -4.42157e-10)
(0.245443 -0.00601266 -4.25012e-10)
(0.0535244 -0.0407038 -1.17801e-09)
(0.0657504 -0.122091 -7.89433e-10)
(0.089769 -0.19957 -4.04332e-10)
(0.124555 -0.270666 -2.08757e-11)
(0.168605 -0.333157 3.61508e-10)
(0.219986 -0.385128 7.42589e-10)
(0.276394 -0.425046 1.12157e-09)
(0.335232 -0.451827 1.49709e-09)
(0.393694 -0.46489 1.86718e-09)
(0.448875 -0.4642 2.22911e-09)
(0.497885 -0.450292 2.57932e-09)
(0.537987 -0.42427 2.91328e-09)
(0.56674 -0.38779 3.22517e-09)
(0.582157 -0.343015 3.50857e-09)
(0.582886 -0.292518 3.75619e-09)
(0.568351 -0.239161 3.96019e-09)
(0.538891 -0.185917 4.11249e-09)
(0.495837 -0.135666 4.20534e-09)
(0.441508 -0.0909588 4.23191e-09)
(0.379094 -0.0537793 4.18695e-09)
(0.312389 -0.0253516 4.06707e-09)
(0.245443 -0.00601266 3.86965e-09)
(0.0535244 -0.0407038 -1.46075e-09)
(0.0657504 -0.122091 3.01748e-10)
(0.089769 -0.19957 2.0566e-09)
(0.124555 -0.270666 3.81762e-09)
(0.168605 -0.333157 5.59722e-09)
(0.219986 -0.385128 7.40639e-09)
(0.276394 -0.425046 9.25439e-09)
(0.335232 -0.451827 1.11481e-08)
(0.393694 -0.46489 1.30912e-08)
(0.448875 -0.4642 1.50831e-08)
(0.497885 -0.450292 1.71173e-08)
(0.537987 -0.42427 1.91803e-08)
(0.56674 -0.38779 2.12497e-08)
(0.582157 -0.343015 2.32907e-08)
(0.582886 -0.292518 2.52562e-08)
(0.568351 -0.239161 2.70852e-08)
(0.538891 -0.185917 2.87039e-08)
(0.495837 -0.135666 3.0029e-08)
(0.441508 -0.0909588 3.09738e-08)
(0.379094 -0.0537793 3.14579e-08)
(0.312389 -0.0253516 3.14158e-08)
(0.245443 -0.00601266 3.08039e-08)
(0.0535244 -0.0407038 -6.52509e-10)
(0.0657504 -0.122091 3.21335e-10)
(0.089769 -0.19957 1.29863e-09)
(0.124555 -0.270666 2.29233e-09)
(0.168605 -0.333157 3.31524e-09)
(0.219986 -0.385128 4.38024e-09)
(0.276394 -0.425046 5.49919e-09)
(0.335232 -0.451827 6.68262e-09)
(0.393694 -0.46489 7.93906e-09)
(0.448875 -0.4642 9.27498e-09)
(0.497885 -0.450292 1.06942e-08)
(0.537987 -0.424271 1.21976e-08)
(0.56674 -0.387791 1.37828e-08)
(0.582157 -0.343015 1.54411e-08)
(0.582886 -0.292518 1.716e-08)
(0.568351 -0.239161 1.8921e-08)
(0.538891 -0.185917 2.06994e-08)
(0.495837 -0.135666 2.24636e-08)
(0.441508 -0.0909588 2.41746e-08)
(0.379094 -0.0537793 2.57863e-08)
(0.312389 -0.0253516 2.72439e-08)
(0.245443 -0.00601266 2.84805e-08)
(0.0535244 -0.0407038 -1.30571e-09)
(0.0657504 -0.122091 1.75862e-09)
(0.089769 -0.19957 4.89684e-09)
(0.124555 -0.270666 8.25792e-09)
(0.168605 -0.333157 1.20105e-08)
(0.219986 -0.385128 1.63561e-08)
(0.276394 -0.425046 2.15033e-08)
(0.335232 -0.451827 2.76599e-08)
(0.393694 -0.46489 3.50281e-08)
(0.448875 -0.4642 4.37967e-08)
(0.497885 -0.450292 5.41324e-08)
(0.537987 -0.424271 6.61679e-08)
(0.56674 -0.387791 7.99672e-08)
(0.582157 -0.343015 9.54761e-08)
(0.582886 -0.292518 1.12482e-07)
(0.568351 -0.239161 1.30591e-07)
(0.538891 -0.185917 1.49213e-07)
(0.495837 -0.135666 1.67545e-07)
(0.441508 -0.0909588 1.84583e-07)
(0.379094 -0.0537793 1.99164e-07)
(0.312389 -0.0253516 2.10039e-07)
(0.245443 -0.00601265 2.15973e-07)
(0.0940833 -0.0476712 7.70117e-10)
(0.108057 -0.141973 7.90031e-10)
(0.135551 -0.232101 8.0876e-10)
(0.1755 -0.315397 8.25479e-10)
(0.226342 -0.389452 8.39086e-10)
(0.286056 -0.452153 8.48232e-10)
(0.352214 -0.50176 8.51931e-10)
(0.422048 -0.536973 8.4955e-10)
(0.492529 -0.556993 8.41074e-10)
(0.560456 -0.561568 8.26562e-10)
(0.622566 -0.55102 8.06078e-10)
(0.675657 -0.526271 7.79178e-10)
(0.716732 -0.488825 7.46744e-10)
(0.743133 -0.440751 7.08718e-10)
(0.752768 -0.384635 6.64034e-10)
(0.744281 -0.323468 6.12778e-10)
(0.71725 -0.260509 5.55754e-10)
(0.672361 -0.199089 4.94652e-10)
(0.61152 -0.142375 4.32104e-10)
(0.537866 -0.0930991 3.71628e-10)
(0.4556 -0.0532884 3.17214e-10)
(0.369677 -0.024024 2.72907e-10)
(0.0940833 -0.047671 3.48763e-09)
(0.108057 -0.141972 -3.29758e-10)
(0.135551 -0.2321 -4.21219e-09)
(0.1755 -0.315397 -8.31963e-09)
(0.226342 -0.389452 -1.28276e-08)
(0.286056 -0.452153 -1.79492e-08)
(0.352214 -0.501759 -2.39076e-08)
(0.422048 -0.536973 -3.09311e-08)
(0.492529 -0.556993 -3.92492e-08)
(0.560456 -0.561567 -4.90878e-08)
(0.622566 -0.55102 -6.06623e-08)
(0.675656 -0.526271 -7.41703e-08)
(0.716731 -0.488825 -8.97651e-08)
(0.743133 -0.440751 -1.07491e-07)
(0.752767 -0.384634 -1.27236e-07)
(0.74428 -0.323468 -1.4869e-07)
(0.717249 -0.260509 -1.71314e-07)
(0.67236 -0.199089 -1.94299e-07)
(0.611519 -0.142375 -2.16539e-07)
(0.537865 -0.0930989 -2.36641e-07)
(0.455599 -0.0532883 -2.52975e-07)
(0.369676 -0.024024 -2.63781e-07)
(0.0940833 -0.047671 2.01067e-09)
(0.108057 -0.141972 8.54315e-10)
(0.135551 -0.2321 -3.09348e-10)
(0.1755 -0.315397 -1.49835e-09)
(0.226342 -0.389452 -2.72732e-09)
(0.286056 -0.452153 -4.00973e-09)
(0.352214 -0.501759 -5.35824e-09)
(0.422048 -0.536973 -6.78476e-09)
(0.492529 -0.556993 -8.30019e-09)
(0.560456 -0.561567 -9.91396e-09)
(0.622566 -0.55102 -1.16334e-08)
(0.675657 -0.526271 -1.34631e-08)
(0.716731 -0.488825 -1.54042e-08)
(0.743133 -0.440751 -1.74529e-08)
(0.752767 -0.384634 -1.95995e-08)
(0.74428 -0.323468 -2.18287e-08)
(0.717249 -0.260509 -2.41169e-08)
(0.67236 -0.199089 -2.64318e-08)
(0.611519 -0.142375 -2.87296e-08)
(0.537865 -0.0930989 -3.09549e-08)
(0.455599 -0.0532883 -3.30371e-08)
(0.369676 -0.024024 -3.48859e-08)
(0.0940833 -0.047671 1.48903e-09)
(0.108057 -0.141972 -6.15048e-10)
(0.135551 -0.2321 -2.71037e-09)
(0.1755 -0.315397 -4.8134e-09)
(0.226342 -0.389452 -6.93873e-09)
(0.286056 -0.452153 -9.09943e-09)
(0.352214 -0.501759 -1.1307e-08)
(0.422048 -0.536973 -1.35706e-08)
(0.492529 -0.556993 -1.58966e-08)
(0.560456 -0.561567 -1.82867e-08)
(0.622566 -0.55102 -2.07375e-08)
(0.675656 -0.526271 -2.32378e-08)
(0.716731 -0.488825 -2.57688e-08)
(0.743133 -0.440751 -2.82977e-08)
(0.752767 -0.384634 -3.07756e-08)
(0.74428 -0.323468 -3.31375e-08)
(0.717249 -0.260509 -3.53003e-08)
(0.67236 -0.199089 -3.71646e-08)
(0.611519 -0.142375 -3.86193e-08)
(0.537865 -0.0930989 -3.95511e-08)
(0.455599 -0.0532883 -3.98562e-08)
(0.369676 -0.024024 -3.94499e-08)
(0.0940833 -0.047671 -5.0141e-10)
(0.108057 -0.141972 -9.89169e-10)
(0.135551 -0.2321 -1.46584e-09)
(0.1755 -0.315397 -1.93086e-09)
(0.226342 -0.389452 -2.38449e-09)
(0.286056 -0.452153 -2.82701e-09)
(0.352214 -0.501759 -3.25833e-09)
(0.422048 -0.536973 -3.67774e-09)
(0.492529 -0.556993 -4.08375e-09)
(0.560456 -0.561567 -4.47391e-09)
(0.622566 -0.55102 -4.84471e-09)
(0.675656 -0.526271 -5.19128e-09)
(0.716731 -0.488825 -5.50955e-09)
(0.743133 -0.440751 -5.79298e-09)
(0.752767 -0.384634 -6.03281e-09)
(0.74428 -0.323468 -6.22098e-09)
(0.717249 -0.260509 -6.34944e-09)
(0.67236 -0.199089 -6.41083e-09)
(0.611519 -0.142375 -6.39913e-09)
(0.537865 -0.0930989 -6.31026e-09)
(0.455599 -0.0532883 -6.14225e-09)
(0.369676 -0.024024 -5.89376e-09)
(0.0940833 -0.047671 -1.2544e-09)
(0.108057 -0.141972 -1.2702e-09)
(0.135551 -0.2321 -1.28282e-09)
(0.1755 -0.315397 -1.28977e-09)
(0.226342 -0.389452 -1.29029e-09)
(0.286056 -0.452153 -1.28427e-09)
(0.352214 -0.501759 -1.2718e-09)
(0.422048 -0.536973 -1.25299e-09)
(0.492529 -0.556993 -1.22792e-09)
(0.560456 -0.561567 -1.19663e-09)
(0.622566 -0.55102 -1.15912e-09)
(0.675656 -0.526271 -1.11529e-09)
(0.716731 -0.488825 -1.06643e-09)
(0.743133 -0.440751 -1.01314e-09)
(0.752767 -0.384634 -9.55325e-10)
(0.74428 -0.323468 -8.94067e-10)
(0.717249 -0.260509 -8.31008e-10)
(0.67236 -0.199089 -7.68434e-10)
(0.611519 -0.142375 -7.09254e-10)
(0.537865 -0.0930989 -6.56866e-10)
(0.455599 -0.0532883 -6.14858e-10)
(0.369676 -0.024024 -5.8657e-10)
(0.0940833 -0.047671 -1.43364e-09)
(0.108057 -0.141972 -9.72346e-10)
(0.135551 -0.2321 -5.16187e-10)
(0.1755 -0.315397 -6.22255e-11)
(0.226342 -0.389452 3.90796e-10)
(0.286056 -0.452153 8.43158e-10)
(0.352214 -0.501759 1.29449e-09)
(0.422048 -0.536973 1.74379e-09)
(0.492529 -0.556993 2.18938e-09)
(0.560456 -0.561567 2.62878e-09)
(0.622566 -0.55102 3.05854e-09)
(0.675656 -0.526271 3.4741e-09)
(0.716731 -0.488825 3.86942e-09)
(0.743133 -0.440751 4.23719e-09)
(0.752767 -0.384634 4.56908e-09)
(0.74428 -0.323468 4.85548e-09)
(0.717249 -0.260509 5.08586e-09)
(0.67236 -0.199089 5.24922e-09)
(0.611519 -0.142375 5.33477e-09)
(0.537865 -0.0930989 5.33281e-09)
(0.455599 -0.0532883 5.23531e-09)
(0.369676 -0.024024 5.03529e-09)
(0.0940833 -0.047671 -1.90875e-09)
(0.108057 -0.141972 1.85294e-10)
(0.135551 -0.2321 2.27037e-09)
(0.1755 -0.315397 4.36334e-09)
(0.226342 -0.389452 6.47913e-09)
(0.286056 -0.452153 8.63119e-09)
(0.352214 -0.501759 1.08313e-08)
(0.422048 -0.536973 1.30891e-08)
(0.492529 -0.556993 1.5411e-08)
(0.560456 -0.561567 1.77994e-08)
(0.622566 -0.55102 2.02512e-08)
(0.675656 -0.526271 2.27559e-08)
(0.716731 -0.488825 2.52944e-08)
(0.743133 -0.440751 2.78339e-08)
(0.752767 -0.384634 3.03266e-08)
(0.74428 -0.323468 3.27074e-08)
(0.717249 -0.260509 3.48927e-08)
(0.67236 -0.199089 3.67821e-08)
(0.611519 -0.142375 3.82632e-08)
(0.537865 -0.0930989 3.92207e-08)
(0.455599 -0.0532883 3.95482e-08)
(0.369676 -0.024024 3.9159e-08)
(0.0940833 -0.047671 -8.45757e-10)
(0.108057 -0.141972 3.1714e-10)
(0.135551 -0.2321 1.48259e-09)
(0.1755 -0.315397 2.66593e-09)
(0.226342 -0.389452 3.8819e-09)
(0.286056 -0.452153 5.14532e-09)
(0.352214 -0.501759 6.47012e-09)
(0.422048 -0.536973 7.86913e-09)
(0.492529 -0.556993 9.35345e-09)
(0.560456 -0.561567 1.09325e-08)
(0.622566 -0.55102 1.26135e-08)
(0.675657 -0.526271 1.44011e-08)
(0.716731 -0.488825 1.62976e-08)
(0.743133 -0.440751 1.82999e-08)
(0.752767 -0.384634 2.03992e-08)
(0.74428 -0.323468 2.25813e-08)
(0.717249 -0.260509 2.48247e-08)
(0.67236 -0.199089 2.70987e-08)
(0.611519 -0.142375 2.93619e-08)
(0.537865 -0.0930989 3.15606e-08)
(0.455599 -0.0532883 3.36268e-08)
(0.369676 -0.024024 3.54714e-08)
(0.0940833 -0.047671 -1.81352e-09)
(0.108057 -0.141972 2.02972e-09)
(0.135551 -0.2321 5.935e-09)
(0.1755 -0.315397 1.00595e-08)
(0.226342 -0.389452 1.45775e-08)
(0.286056 -0.452153 1.97017e-08)
(0.352214 -0.501759 2.56551e-08)
(0.422048 -0.536973 3.26657e-08)
(0.492529 -0.556993 4.09627e-08)