/*--------------------------------*- C++ -*----------------------------------*\
  =========                 |
  \\      /  F ield         | OpenFOAM: The Open Source CFD Toolbox
   \\    /   O peration     | Website:  https://openfoam.org
    \\  /    A nd           | Version:  6
     \\/     M anipulation  |
\*---------------------------------------------------------------------------*/
FoamFile
{
    version     2.0;
    format      ascii;
    class       surfaceScalarField;
    location    "100";
    object      phi;
}
// * * * * * * * * * * * * * * * * * * * * * * * * * * * * * * * * * * * * * //

dimensions      [0 3 -1 0 0 0 0];

internalField   nonuniform List<scalar> 
184800
(
0.000128877
9.50887e-14
-0.00013192
3.0429e-06
0.000258208
-3.54973e-13
-0.000129331
0.000382313
-8.40356e-13
-0.000124105
0.000498722
-1.38007e-12
-0.000116409
0.000605092
-2.01063e-12
-0.00010637
0.000699233
-2.77392e-12
-9.41403e-05
0.000779153
-3.70752e-12
-7.99204e-05
0.000843113
-4.84395e-12
-6.39598e-05
0.000889674
-6.20865e-12
-4.65614e-05
0.000917765
-7.81786e-12
-2.80907e-05
0.000926749
-9.67599e-12
-8.98382e-06
0.000916509
-1.1771e-11
1.02397e-05
0.000887517
-1.40696e-11
2.8992e-05
0.000840896
-1.65106e-11
4.66216e-05
0.00077848
-1.9002e-11
6.24162e-05
0.000702828
-2.1428e-11
7.56518e-05
0.000617174
-2.36556e-11
8.56545e-05
0.000525292
-2.55441e-11
9.18816e-05
0.000431278
-2.69577e-11
9.40138e-05
0.000339244
-2.77802e-11
9.20341e-05
0.000252957
-2.79295e-11
8.62873e-05
-2.73671e-11
7.74365e-05
0.000175521
0.000128877
2.41173e-13
-0.00013192
3.04313e-06
0.000258207
6.822e-15
-0.000129331
0.000382312
-2.38622e-13
-0.000124105
0.000498722
-5.11074e-13
-0.000116409
0.000605092
-8.27096e-13
-0.00010637
0.000699232
-1.20651e-12
-9.41402e-05
0.000779153
-1.66968e-12
-7.99204e-05
0.000843112
-2.23639e-12
-6.39597e-05
0.000889674
-2.92512e-12
-4.65613e-05
0.000917764
-3.75205e-12
-2.80906e-05
0.000926748
-4.72999e-12
-8.98377e-06
0.000916509
-5.86749e-12
1.02397e-05
0.000887517
-7.16399e-12
2.8992e-05
0.000840895
-8.60572e-12
4.66216e-05
0.000778479
-1.0165e-11
6.24162e-05
0.000702827
-1.17982e-11
7.56517e-05
0.000617173
-1.34455e-11
8.56545e-05
0.000525291
-1.50312e-11
9.18815e-05
0.000431278
-1.64668e-11
9.40137e-05
0.000339244
-1.76557e-11
9.2034e-05
0.000252957
-1.85004e-11
8.62871e-05
-1.89117e-11
7.74363e-05
0.00017552
0.000128877
1.72156e-13
-0.00013192
3.04311e-06
0.000258208
-1.61568e-13
-0.000129331
0.000382312
-4.93504e-13
-0.000124105
0.000498722
-8.27226e-13
-0.000116409
0.000605092
-1.1661e-12
-0.00010637
0.000699232
-1.51305e-12
-9.41402e-05
0.000779153
-1.87042e-12
-7.99204e-05
0.000843112
-2.2397e-12
-6.39597e-05
0.000889674
-2.62121e-12
-4.65613e-05
0.000917764
-3.01383e-12
-2.80906e-05
0.000926748
-3.41461e-12
-8.98376e-06
0.000916509
-3.81822e-12
1.02397e-05
0.000887517
-4.21728e-12
2.8992e-05
0.000840895
-4.60234e-12
4.66216e-05
0.000778479
-4.9616e-12
6.24162e-05
0.000702827
-5.28183e-12
7.56517e-05
0.000617173
-5.54947e-12
8.56545e-05
0.000525291
-5.752e-12
9.18816e-05
0.000431278
-5.87949e-12
9.40137e-05
0.000339244
-5.92585e-12
9.2034e-05
0.000252957
-5.88943e-12
8.62871e-05
-5.77223e-12
7.74363e-05
0.00017552
0.000128877
2.33039e-14
-0.00013192
3.04315e-06
0.000258207
-1.35162e-13
-0.000129331
0.000382312
-2.91679e-13
-0.000124105
0.000498722
-4.47277e-13
-0.000116409
0.000605092
-6.03008e-13
-0.00010637
0.000699232
-7.59856e-13
-9.41402e-05
0.000779153
-9.1865e-13
-7.99204e-05
0.000843112
-1.07995e-12
-6.39597e-05
0.000889674
-1.24395e-12
-4.65613e-05
0.000917764
-1.41029e-12
-2.80906e-05
0.000926748
-1.57799e-12
-8.98376e-06
0.000916509
-1.74557e-12
1.02397e-05
0.000887517
-1.91035e-12
2.8992e-05
0.000840895
-2.06868e-12
4.66216e-05
0.000778479
-2.21609e-12
6.24162e-05
0.000702827
-2.34727e-12
7.56517e-05
0.000617173
-2.45619e-12
8.56545e-05
0.000525291
-2.53652e-12
9.18815e-05
0.000431278
-2.58221e-12
9.40137e-05
0.000339244
-2.58814e-12
9.2034e-05
0.000252957
-2.55079e-12
8.62871e-05
-2.46832e-12
7.74363e-05
0.00017552
0.000128877
-9.01077e-14
-0.00013192
3.04315e-06
0.000258207
-1.58951e-13
-0.000129331
0.000382312
-2.24439e-13
-0.000124105
0.000498722
-2.86767e-13
-0.000116409
0.000605092
-3.4622e-13
-0.00010637
0.000699232
-4.02992e-13
-9.41402e-05
0.000779153
-4.57122e-13
-7.99204e-05
0.000843112
-5.08463e-13
-6.39597e-05
0.000889674
-5.56678e-13
-4.65613e-05
0.000917764
-6.01239e-13
-2.80906e-05
0.000926748
-6.41439e-13
-8.98376e-06
0.000916509
-6.76382e-13
1.02397e-05
0.000887517
-7.05116e-13
2.8992e-05
0.000840895
-7.26781e-13
4.66216e-05
0.000778479
-7.40494e-13
6.24162e-05
0.000702827
-7.45595e-13
7.56517e-05
0.000617173
-7.41778e-13
8.56545e-05
0.000525291
-7.29204e-13
9.18816e-05
0.000431278
-7.08549e-13
9.40137e-05
0.000339244
-6.80971e-13
9.2034e-05
0.000252957
-6.47941e-13
8.62871e-05
-6.10901e-13
7.74363e-05
0.00017552
0.000128877
-1.83491e-13
-0.00013192
3.04316e-06
0.000258207
-1.16024e-13
-0.000129331
0.000382312
-4.92023e-14
-0.000124105
0.000498722
1.71874e-14
-0.000116409
0.000605092
8.31736e-14
-0.00010637
0.000699232
1.48613e-13
-9.41402e-05
0.000779153
2.13233e-13
-7.99204e-05
0.000843112
2.7663e-13
-6.39597e-05
0.000889674
3.38244e-13
-4.65613e-05
0.000917764
3.97352e-13
-2.80906e-05
0.000926748
4.53058e-13
-8.98376e-06
0.000916509
5.04163e-13
1.02397e-05
0.000887517
5.49466e-13
2.8992e-05
0.000840895
5.87743e-13
4.66216e-05
0.000778479
6.17676e-13
6.24162e-05
0.000702827
6.38066e-13
7.56517e-05
0.000617173
6.47986e-13
8.56545e-05
0.000525291
6.46941e-13
9.18815e-05
0.000431278
6.34993e-13
9.40137e-05
0.000339244
6.12795e-13
9.2034e-05
0.000252957
5.81503e-13
8.62871e-05
5.42486e-13
7.74363e-05
0.00017552
0.000128877
-1.72045e-13
-0.00013192
3.04315e-06
0.000258207
-1.38437e-14
-0.000129331
0.000382312
1.44196e-13
-0.000124105
0.000498722
3.03111e-13
-0.000116409
0.000605092
4.6373e-13
-0.00010637
0.000699232
6.26749e-13
-9.41402e-05
0.000779153
7.92708e-13
-7.99204e-05
0.000843112
9.61914e-13
-6.39597e-05
0.000889674
1.13433e-12
-4.65613e-05
0.000917764
1.30947e-12
-2.80906e-05
0.000926748
1.48623e-12
-8.98376e-06
0.000916509
1.66295e-12
1.02397e-05
0.000887517
1.8369e-12
2.8992e-05
0.000840895
2.00427e-12
4.66216e-05
0.000778479
2.1604e-12
6.24162e-05
0.000702827
2.29971e-12
7.56517e-05
0.000617173
2.41583e-12
8.56545e-05
0.000525291
2.50204e-12
9.18816e-05
0.000431278
2.55193e-12
9.40137e-05
0.000339244
2.56006e-12
9.2034e-05
0.000252957
2.52272e-12
8.62871e-05
2.43804e-12
7.74363e-05
0.00017552
0.000128877
-1.39984e-13
-0.00013192
3.04315e-06
0.000258207
1.94338e-13
-0.000129331
0.000382312
5.26193e-13
-0.000124105
0.000498722
8.59255e-13
-0.000116409
0.000605092
1.19711e-12
-0.00010637
0.000699232
1.54288e-12
-9.41402e-05
0.000779153
1.89902e-12
-7.99204e-05
0.000843112
2.26705e-12
-6.39597e-05
0.000889674
2.64727e-12
-4.65613e-05
0.000917764
3.03849e-12
-2.80906e-05
0.000926748
3.4378e-12
-8.98376e-06
0.000916509
3.8399e-12
1.02397e-05
0.000887517
4.23745e-12
2.8992e-05
0.000840895
4.62112e-12
4.66216e-05
0.000778479
4.9792e-12
6.24162e-05
0.000702827
5.29853e-12
7.56517e-05
0.000617173
5.5656e-12
8.56545e-05
0.000525291
5.76789e-12
9.18815e-05
0.000431278
5.89545e-12
9.40137e-05
0.000339244
5.94213e-12
9.2034e-05
0.000252957
5.90622e-12
8.62871e-05
5.78966e-12
7.74363e-05
0.00017552
0.000128877
-9.23091e-14
-0.00013192
3.04311e-06
0.000258208
1.4326e-13
-0.000129331
0.000382312
3.89057e-13
-0.000124105
0.000498722
6.60659e-13
-0.000116409
0.000605092
9.74635e-13
-0.00010637
0.000699232
1.35139e-12
-9.41402e-05
0.000779153
1.81158e-12
-7.99204e-05
0.000843112
2.37525e-12
-6.39597e-05
0.000889674
3.06054e-12
-4.65613e-05
0.000917764
3.88343e-12
-2.80906e-05
0.000926748
4.85635e-12
-8.98376e-06
0.000916509
5.98789e-12
1.02397e-05
0.000887517
7.2775e-12
2.8992e-05
0.000840895
8.71174e-12
4.66216e-05
0.000778479
1.02632e-11
6.24162e-05
0.000702827
1.18887e-11
7.56517e-05
0.000617173
1.35288e-11
8.56545e-05
0.000525291
1.51085e-11
9.18816e-05
0.000431278
1.65395e-11
9.40137e-05
0.000339244
1.77256e-11
9.2034e-05
0.000252957
1.85696e-11
8.62871e-05
1.89824e-11
7.74363e-05
0.00017552
0.000128877
-0.00013192
3.04313e-06
0.000258207
-0.000129331
0.000382312
-0.000124105
0.000498722
-0.000116409
0.000605092
-0.00010637
0.000699232
-9.41402e-05
0.000779153
-7.99204e-05
0.000843112
-6.39597e-05
0.000889674
-4.65613e-05
0.000917764
-2.80906e-05
0.000926748
-8.98377e-06
0.000916509
1.02397e-05
0.000887517
2.8992e-05
0.000840895
4.66216e-05
0.000778479
6.24162e-05
0.000702827
7.56517e-05
0.000617173
8.56545e-05
0.000525291
9.18815e-05
0.000431278
9.40137e-05
0.000339244
9.2034e-05
0.000252957
8.62871e-05
7.74363e-05
0.00017552
0.000336111
6.07777e-13
-0.000472939
4.90798e-06
0.000671133
-4.4021e-13
-0.000464352
0.000994427
-1.54103e-12
-0.000447399
0.00130038
-2.73944e-12
-0.000422366
0.00158357
-4.1109e-12
-0.000389557
0.00183878
-5.74031e-12
-0.000349351
0.00206111
-7.70705e-12
-0.000302247
0.00224603
-1.00841e-11
-0.000248881
0.00238952
-1.29349e-11
-0.000190054
0.00248819
-1.63096e-11
-0.000126763
0.00253946
-2.02401e-11
-6.0246e-05
0.00254173
-2.47279e-11
7.96726e-06
0.0024947
-2.97155e-11
7.60243e-05
0.00239953
-3.51344e-11
0.000141788
0.00225915
-4.08338e-11
0.000202798
0.00207841
-4.66036e-11
0.000256388
0.00186421
-5.21791e-11
0.000299859
0.00162534
-5.72527e-11
0.000330755
0.00137213
-6.14932e-11
0.000347217
0.00111581
-6.45736e-11
0.000348353
0.000867537
-6.62051e-11
0.000334565
-6.61678e-11
0.00030758
0.000637394
0.000336111
9.99171e-13
-0.000472939
4.9086e-06
0.000671132
2.0271e-13
-0.000464352
0.000994427
-6.21784e-13
-0.000447399
0.00130038
-1.51833e-12
-0.000422366
0.00158357
-2.53032e-12
-0.000389557
0.00183878
-3.70988e-12
-0.000349351
0.00206111
-5.11163e-12
-0.000302247
0.00224603
-6.78966e-12
-0.000248881
0.00238952
-8.79581e-12
-0.000190054
0.00248819
-1.11774e-11
-0.000126763
0.00253946
-1.39742e-11
-6.02458e-05
0.00254173
-1.72176e-11
7.96744e-06
0.0024947
-2.09256e-11
7.60245e-05
0.00239953
-2.50648e-11
0.000141788
0.00225915
-2.95699e-11
0.000202798
0.00207841
-3.4329e-11
0.000256388
0.00186421
-3.91813e-11
0.000299859
0.00162533
-4.39163e-11
0.000330754
0.00137213
-4.82791e-11
0.000347216
0.00111581
-5.19821e-11
0.000348353
0.000867535
-5.47251e-11
0.000334564
-5.62197e-11
0.00030758
0.000637392
0.000336111
6.57439e-13
-0.000472939
4.90855e-06
0.000671132
-1.70473e-13
-0.000464352
0.000994427
-9.93534e-13
-0.000447399
0.00130038
-1.82095e-12
-0.000422366
0.00158357
-2.66083e-12
-0.000389557
0.00183878
-3.52034e-12
-0.000349351
0.00206111
-4.40545e-12
-0.000302247
0.00224603
-5.32058e-12
-0.000248881
0.00238952
-6.26803e-12
-0.000190054
0.00248819
-7.24736e-12
-0.000126763
0.00253946
-8.25468e-12
-6.02458e-05
0.00254173
-9.28077e-12
7.96746e-06
0.0024947
-1.03089e-11
7.60245e-05
0.00239953
-1.13242e-11
0.000141788
0.00225915
-1.23027e-11
0.000202798
0.00207841
-1.32156e-11
0.000256388
0.00186421
-1.40308e-11
0.000299859
0.00162533
-1.47151e-11
0.000330754
0.00137213
-1.52376e-11
0.000347216
0.00111581
-1.55725e-11
0.000348353
0.000867535
-1.57014e-11
0.000334564
-1.56128e-11
0.00030758
0.000637392
0.000336111
1.08113e-13
-0.000472939
4.90866e-06
0.000671132
-3.78495e-13
-0.000464352
0.000994426
-8.62502e-13
-0.000447399
0.00130038
-1.34638e-12
-0.000422366
0.00158357
-1.83256e-12
-0.000389557
0.00183878
-2.32322e-12
-0.000349351
0.00206111
-2.82005e-12
-0.000302247
0.00224603
-3.32408e-12
-0.000248881
0.00238952
-3.83537e-12
-0.000190054
0.00248819
-4.3527e-12
-0.000126763
0.00253946
-4.87319e-12
-6.02458e-05
0.00254173
-5.39276e-12
7.96746e-06
0.0024947
-5.90662e-12
7.60245e-05
0.00239953
-6.40221e-12
0.000141788
0.00225915
-6.86681e-12
0.000202798
0.00207841
-7.28477e-12
0.000256388
0.00186421
-7.638e-12
0.000299859
0.00162533
-7.9071e-12
0.000330754
0.00137213
-8.07293e-12
0.000347216
0.00111581
-8.11877e-12
0.000348353
0.000867535
-8.03223e-12
0.000334564
-7.80586e-12
0.00030758
0.000637392
0.000336111
-3.55789e-13
-0.000472939
4.90865e-06
0.000671132
-5.13204e-13
-0.000464352
0.000994426
-6.62514e-13
-0.000447399
0.00130038
-8.03896e-13
-0.000422366
0.00158357
-9.37866e-13
-0.000389557
0.00183878
-1.06485e-12
-0.000349351
0.00206111
-1.18502e-12
-0.000302247
0.00224603
-1.29824e-12
-0.000248881
0.00238952
-1.40403e-12
-0.000190054
0.00248819
-1.50153e-12
-0.000126763
0.00253946
-1.58953e-12
-6.02458e-05
0.00254173
-1.66623e-12
7.96746e-06
0.0024947
-1.72907e-12
7.60245e-05
0.00239953
-1.77721e-12
0.000141788
0.00225915
-1.80895e-12
0.000202798
0.00207841
-1.82283e-12
0.000256388
0.00186421
-1.81797e-12
0.000299859
0.00162533
-1.79427e-12
0.000330754
0.00137213
-1.75257e-12
0.000347216
0.00111581
-1.69459e-12
0.000348353
0.000867535
-1.62271e-12
0.000334564
-1.53918e-12
0.00030758
0.000637392
0.000336111
-5.8675e-13
-0.000472939
4.90868e-06
0.000671132
-4.3841e-13
-0.000464352
0.000994426
-2.92157e-13
-0.000447399
0.00130038
-1.46922e-13
-0.000422366
0.00158357
-2.26138e-15
-0.000389557
0.00183878
1.4183e-13
-0.000349351
0.00206111
2.85057e-13
-0.000302247
0.00224603
4.26845e-13
-0.000248881
0.00238952
5.66311e-13
-0.000190054
0.00248819
7.02233e-13
-0.000126763
0.00253946
8.33019e-13
-6.02458e-05
0.00254173
9.5627e-13
7.96746e-06
0.0024947
1.06825e-12
7.60245e-05
0.00239953
1.16774e-12
0.000141788
0.00225915
1.25183e-12
0.000202798
0.00207841
1.31762e-12
0.000256388
0.00186421
1.36245e-12
0.000299859
0.00162533
1.38416e-12
0.000330754
0.00137213
1.38146e-12
0.000347216
0.00111581
1.35406e-12
0.000348353
0.000867535
1.30264e-12
0.000334564
1.22841e-12
0.00030758
0.000637392
0.000336111
-6.03749e-13
-0.000472939
4.90865e-06
0.000671132
-1.22815e-13
-0.000464352
0.000994426
3.58804e-13
-0.000447399
0.00130038
8.44033e-13
-0.000422366
0.00158357
1.33521e-12
-0.000389557
0.00183878
1.83421e-12
-0.000349351
0.00206111
2.34245e-12
-0.000302247
0.00224603
2.86068e-12
-0.000248881
0.00238952
3.38876e-12
-0.000190054
0.00248819
3.92531e-12
-0.000126763
0.00253946
4.46736e-12
-6.02458e-05
0.00254173
5.01064e-12
7.96746e-06
0.0024947
5.54977e-12
7.60245e-05
0.00239953
6.07222e-12
0.000141788
0.00225915
6.56471e-12
0.000202798
0.00207841
7.01082e-12
0.000256388
0.00186421
7.39145e-12
0.000299859
0.00162533
7.68594e-12
0.000330754
0.00137213
7.87381e-12
0.000347216
0.00111581
7.937e-12
0.000348353
0.000867535
7.86201e-12
0.000334564
7.64067e-12
0.00030758
0.000637392
0.000336111
-5.03604e-13
-0.000472939
4.90866e-06
0.000671132
3.23787e-13
-0.000464352
0.000994426
1.14398e-12
-0.000447399
0.00130038
1.96627e-12
-0.000422366
0.00158357
2.79929e-12
-0.000389557
0.00183878
3.65076e-12
-0.000349351
0.00206111
4.52712e-12
-0.000302247
0.00224603
5.43308e-12
-0.000248881
0.00238952
6.37115e-12
-0.000190054
0.00248819
7.34106e-12
-0.000126763
0.00253946
8.33911e-12
-6.02458e-05
0.00254173
9.35633e-12
7.96746e-06
0.0024947
1.03762e-11
7.60245e-05
0.00239953
1.13842e-11
0.000141788
0.00225915
1.23567e-11
0.000202798
0.00207841
1.3265e-11
0.000256388
0.00186421
1.4077e-11
0.000299859
0.00162533
1.47598e-11
0.000330754
0.00137213
1.52822e-11
0.000347216
0.00111581
1.56182e-11
0.000348353
0.000867535
1.57493e-11
0.000334564
1.56637e-11
0.00030758
0.000637392
0.000336111
-4.3588e-13
-0.000472939
4.90855e-06
0.000671132
3.6718e-13
-0.000464352
0.000994427
1.1956e-12
-0.000447399
0.00130038
2.0923e-12
-0.000422366
0.00158357
3.10056e-12
-0.000389557
0.00183878
4.27338e-12
-0.000349351
0.00206111
5.66592e-12
-0.000302247
0.00224603
7.33266e-12
-0.000248881
0.00238952
9.32507e-12
-0.000190054
0.00248819
1.16901e-11
-0.000126763
0.00253946
1.44673e-11
-6.02458e-05
0.00254173
1.7688e-11
7.96746e-06
0.0024947
2.13708e-11
7.60245e-05
0.00239953
2.54828e-11
0.000141788
0.00225915
2.99593e-11
0.000202798
0.00207841
3.46896e-11
0.000256388
0.00186421
3.95142e-11
0.000299859
0.00162533
4.42238e-11
0.000330754
0.00137213
4.85649e-11
0.000347216
0.00111581
5.22512e-11
0.000348353
0.000867535
5.49836e-11
0.000334564
5.64742e-11
0.00030758
0.000637392
0.000336111
-0.000472939
4.9086e-06
0.000671132
-0.000464352
0.000994427
-0.000447399
0.00130038
-0.000422366
0.00158357
-0.000389557
0.00183878
-0.000349351
0.00206111
-0.000302247
0.00224603
-0.000248881
0.00238952
-0.000190054
0.00248819
-0.000126763
0.00253946
-6.02458e-05
0.00254173
7.96744e-06
0.0024947
7.60245e-05
0.00239953
0.000141788
0.00225915
0.000202798
0.00207841
0.000256388
0.00186421
0.000299859
0.00162533
0.000330754
0.00137213
0.000347216
0.00111581
0.000348353
0.000867535
0.000334564
0.00030758
0.000637392
0.000501876
1.14266e-12
-0.000978757
3.94107e-06
0.00099989
-4.08699e-13
-0.000962365
0.00148278
-2.01575e-12
-0.000930289
0.00194325
-3.73608e-12
-0.000882833
0.0023741
-5.6667e-12
-0.000820412
0.0027683
-7.91692e-12
-0.00074355
0.003119
-1.05913e-11
-0.000652951
0.00341966
-1.37899e-11
-0.000549536
0.0036641
-1.76055e-11
-0.000434494
0.0038467
-2.21192e-11
-0.000309364
0.00396258
-2.73954e-11
-0.000176126
0.00400786
-3.34736e-11
-3.73138e-05
0.00398007
-4.02831e-11
0.000103817
0.00387853
-4.77865e-11
0.000243321
0.00370489
-5.58479e-11
0.000376444
0.00346355
-6.42367e-11
0.000497733
0.00316211
-7.26352e-11
0.000601293
0.00281161
-8.06416e-11
0.000681257
0.00242631
-8.77835e-11
0.00073252
0.00202305
-9.35462e-11
0.000751607
0.00162004
-9.74139e-11
0.000737581
-9.89191e-11
0.000692488
0.00123513
0.000501875
1.706e-12
-0.000978757
3.942e-06
0.000999889
3.36264e-13
-0.000962365
0.00148278
-1.06692e-12
-0.000930289
0.00194325
-2.56813e-12
-0.000882833
0.0023741
-4.22822e-12
-0.000820411
0.0027683
-6.12109e-12
-0.00074355
0.003119
-8.32572e-12
-0.000652951
0.00341966
-1.09223e-11
-0.000549535
0.0036641
-1.39902e-11
-0.000434493
0.0038467
-1.76059e-11
-0.000309363
0.00396258
-2.18389e-11
-0.000176126
0.00400786
-2.67493e-11
-3.73134e-05
0.00398007
-3.24023e-11
0.000103818
0.00387853
-3.87781e-11
0.000243322
0.00370489
-4.58066e-11
0.000376444
0.00346354
-5.3353e-11
0.000497733
0.00316211
-6.12021e-11
0.000601292
0.0028116
-6.90507e-11
0.000681257
0.0024263
-7.65071e-11
0.000732519
0.00202305
-8.31019e-11
0.000751606
0.00162003
-8.83138e-11
0.00073758
-9.1607e-11
0.000692486
0.00123513
0.000501876
1.11601e-12
-0.000978757
3.94194e-06
0.000999889
-1.11091e-13
-0.000962365
0.00148278
-1.33019e-12
-0.000930289
0.00194325
-2.55528e-12
-0.000882833
0.0023741
-3.79837e-12
-0.000820411
0.0027683
-5.07015e-12
-0.00074355
0.003119
-6.37993e-12
-0.000652951
0.00341966
-7.73522e-12
-0.000549535
0.0036641
-9.14113e-12
-0.000434493
0.0038467
-1.05996e-11
-0.000309363
0.00396258
-1.21084e-11
-0.000176126
0.00400786
-1.36597e-11
-3.73134e-05
0.00398007
-1.52293e-11
0.000103818
0.00387853
-1.6802e-11
0.000243322
0.00370489
-1.83509e-11
0.000376444
0.00346354
-1.98385e-11
0.000497733
0.00316211
-2.12201e-11
0.000601292
0.0028116
-2.24462e-11
0.000681257
0.0024263
-2.34653e-11
0.000732519
0.00202305
-2.42285e-11
0.000751606
0.00162003
-2.46931e-11
0.00073758
-2.48226e-11
0.000692486
0.00123513
0.000501875
2.44933e-13
-0.000978757
3.9421e-06
0.000999889
-5.36251e-13
-0.000962365
0.00148278
-1.31445e-12
-0.000930289
0.00194325
-2.09348e-12
-0.000882833
0.0023741
-2.87708e-12
-0.000820411
0.0027683
-3.66865e-12
-0.00074355
0.003119
-4.47103e-12
-0.000652951
0.00341966
-5.28615e-12
-0.000549535
0.0036641
-6.11471e-12
-0.000434493
0.0038467
-6.95566e-12
-0.000309363
0.00396258
-7.80572e-12
-0.000176126
0.00400786
-8.65902e-12
-3.73134e-05
0.00398007
-9.51351e-12
0.000103818
0.00387853
-1.03504e-11
0.000243322
0.00370489
-1.11494e-11
0.000376444
0.00346354
-1.18865e-11
0.000497733
0.00316211
-1.25326e-11
0.000601292
0.0028116
-1.30548e-11
0.000681257
0.0024263
-1.34187e-11
0.000732519
0.00202305
-1.35915e-11
0.000751606
0.00162003
-1.3546e-11
0.00073758
-1.32623e-11
0.000692486
0.00123513
0.000501875
-5.63445e-13
-0.000978757
3.94208e-06
0.000999889
-7.87996e-13
-0.000962365
0.00148278
-1.00198e-12
-0.000930289
0.00194325
-1.20537e-12
-0.000882833
0.0023741
-1.39877e-12
-0.000820411
0.0027683
-1.58274e-12
-0.00074355
0.003119
-1.7576e-12
-0.000652951
0.00341966
-1.92326e-12
-0.000549535
0.0036641
-2.07918e-12
-0.000434493
0.0038467
-2.22436e-12
-0.000309363
0.00396258
-2.35728e-12
-0.000176126
0.00400786
-2.47573e-12
-3.73134e-05
0.00398007
-2.57508e-12
0.000103818
0.00387853
-2.65424e-12
0.000243322
0.00370489
-2.71132e-12
0.000376444
0.00346354
-2.74399e-12
0.000497733
0.00316211
-2.7505e-12
0.000601292
0.0028116
-2.73002e-12
0.000681257
0.0024263
-2.68288e-12
0.000732519
0.00202305
-2.61064e-12
0.000751606
0.00162003
-2.51577e-12
0.00073758
-2.40071e-12
0.000692486
0.00123513
0.000501875
-9.30642e-13
-0.000978757
3.94213e-06
0.000999889
-7.23133e-13
-0.000962365
0.00148278
-5.19286e-13
-0.000930289
0.00194325
-3.17012e-13
-0.000882833
0.0023741
-1.15314e-13
-0.000820411
0.0027683
8.61362e-14
-0.00074355
0.003119
2.87228e-13
-0.000652951
0.00341966
4.87473e-13
-0.000549535
0.0036641
6.85982e-13
-0.000434493
0.0038467
8.81426e-13
-0.000309363
0.00396258
1.07198e-12
-0.000176126
0.00400786
1.25511e-12
-3.73134e-05
0.00398007
1.42379e-12
0.000103818
0.00387853
1.57717e-12
0.000243322
0.00370489
1.71211e-12
0.000376444
0.00346354
1.82445e-12
0.000497733
0.00316211
1.90995e-12
0.000601292
0.0028116
1.9647e-12
0.000681257
0.0024263
1.98544e-12
0.000732519
0.00202305
1.97e-12
0.000751606
0.00162003
1.91732e-12
0.00073758
1.82701e-12
0.000692486
0.00123513
0.000501875
-1.03321e-12
-0.000978757
3.94208e-06
0.000999889
-2.62476e-13
-0.000962365
0.00148278
5.08965e-13
-0.000930289
0.00194325
1.28593e-12
-0.000882833
0.0023741
2.07227e-12
-0.000820411
0.0027683
2.87122e-12
-0.00074355
0.003119
3.68535e-12
-0.000652951
0.00341966
4.51641e-12
-0.000549535
0.0036641
5.36493e-12
-0.000434493
0.0038467
6.22983e-12
-0.000309363
0.00396258
7.10782e-12
-0.000176126
0.00400786
7.99309e-12
-3.73134e-05
0.00398007
8.88226e-12
0.000103818
0.00387853
9.75704e-12
0.000243322
0.00370489
1.05968e-11
0.000376444
0.00346354
1.13765e-11
0.000497733
0.00316211
1.20658e-11
0.000601292
0.0028116
1.263e-11
0.000681257
0.0024263
1.30323e-11
0.000732519
0.00202305
1.32378e-11
0.000751606
0.00162003
1.32169e-11
0.00073758
1.29478e-11
0.000692486
0.00123513
0.000501875
-8.72789e-13
-0.000978757
3.9421e-06
0.000999889
3.53858e-13
-0.000962365
0.00148278
1.56966e-12
-0.000930289
0.00194325
2.78834e-12
-0.000882833
0.0023741
4.02242e-12
-0.000820411
0.0027683
5.28329e-12
-0.00074355
0.003119
6.58087e-12
-0.000652951
0.00341966
7.92311e-12
-0.000549535
0.0036641
9.31543e-12
-0.000434493
0.0038467
1.076e-11
-0.000309363
0.00396258
1.22549e-11
-0.000176126
0.00400786
1.37924e-11
-3.73134e-05
0.00398007
1.5349e-11
0.000103818
0.00387853
1.69098e-11
0.000243322
0.00370489
1.84482e-11
0.000376444
0.00346354
1.99272e-11
0.000497733
0.00316211
2.13026e-11
0.000601292
0.0028116
2.25247e-11
0.000681257
0.0024263
2.35424e-11
0.000732519
0.00202305
2.43064e-11
0.000751606
0.00162003
2.47737e-11
0.00073758
2.49078e-11
0.000692486
0.00123513
0.000501876
-7.95675e-13
-0.000978757
3.94194e-06
0.000999889
5.85792e-13
-0.000962365
0.00148278
1.99759e-12
-0.000930289
0.00194325
3.50226e-12
-0.000882833
0.0023741
5.16028e-12
-0.000820411
0.0027683
7.04642e-12
-0.00074355
0.003119
9.24026e-12
-0.000652951
0.00341966
1.18224e-11
-0.000549535
0.0036641
1.48719e-11
-0.000434493
0.0038467
1.84647e-11
-0.000309363
0.00396258
2.26699e-11
-0.000176126
0.00400786
2.75475e-11
-3.73134e-05
0.00398007
3.31638e-11
0.000103818
0.00387853
3.94992e-11
0.000243322
0.00370489
4.64844e-11
0.000376444
0.00346354
5.3986e-11
0.000497733
0.00316211
6.17906e-11
0.000601292
0.0028116
6.95969e-11
0.000681257
0.0024263
7.70155e-11
0.000732519
0.00202305
8.35793e-11
0.000751606
0.00162003
8.87693e-11
0.00073758
9.20511e-11
0.000692486
0.00123513
0.000501875
-0.000978757
3.942e-06
0.000999889
-0.000962365
0.00148278
-0.000930289
0.00194325
-0.000882833
0.0023741
-0.000820411
0.0027683
-0.00074355
0.003119
-0.000652951
0.00341966
-0.000549535
0.0036641
-0.000434493
0.0038467
-0.000309363
0.00396258
-0.000176126
0.00400786
-3.73134e-05
0.00398007
0.000103818
0.00387853
0.000243322
0.00370489
0.000376444
0.00346354
0.000497733
0.00316211
0.000601292
0.0028116
0.000681257
0.0024263
0.000732519
0.00202305
0.000751606
0.00162003
0.00073758
0.000692486
0.00123513
0.000627711
1.61683e-12
-0.00160778
1.31309e-06
0.00124833
-4.00244e-13
-0.00158299
0.00185272
-2.47044e-12
-0.00153468
0.002433
-4.65478e-12
-0.00146311
0.00298129
-7.06183e-12
-0.0013687
0.00348975
-9.81536e-12
-0.00125201
0.00395057
-1.30347e-11
-0.00111377
0.00435604
-1.68372e-11
-0.000954996
0.00469855
-2.13363e-11
-0.000777013
0.0049708
-2.66382e-11
-0.000581612
0.00516586
-3.28373e-11
-0.000371185
0.00527746
-4.00134e-11
-0.000148915
0.00530036
-4.81325e-11
8.09179e-05
0.00523088
-5.71312e-11
0.000312806
0.00506758
-6.69646e-11
0.000539742
0.00481203
-7.7429e-11
0.000753282
0.00446962
-8.82139e-11
0.0009437
0.00405034
-9.88889e-11
0.00110054
0.00356919
-1.08902e-10
0.00121367
0.00304601
-1.17594e-10
0.00127479
0.00250442
-1.24232e-10
0.00127917
-1.28069e-10
0.00122705
0.00196985
0.00062771
2.3046e-12
-0.00160778
1.31426e-06
0.00124833
4.13048e-13
-0.00158299
0.00185272
-1.50938e-12
-0.00153468
0.002433
-3.53948e-12
-0.00146311
0.00298129
-5.74665e-12
-0.0013687
0.00348975
-8.21646e-12
-0.00125201
0.00395057
-1.1042e-11
-0.00111377
0.00435603
-1.43197e-11
-0.000954996
0.00469855
-1.81483e-11
-0.000777013
0.0049708
-2.26269e-11
-0.000581611
0.00516586
-2.78522e-11
-0.000371185
0.00527746
-3.3915e-11
-0.000148914
0.00530036
-4.09276e-11
8.09186e-05
0.00523087
-4.89417e-11
0.000312807
0.00506758
-5.78999e-11
0.000539742
0.00481203
-6.76918e-11
0.000753283
0.00446962
-7.8106e-11
0.0009437
0.00405034
-8.88101e-11
0.00110054
0.00356918
-9.93352e-11
0.00121367
0.003046
-1.09073e-10
0.00127479
0.00250441
-1.17294e-10
0.00127917
-1.23188e-10
0.00122705
0.00196985
0.00062771
1.51857e-12
-0.00160778
1.31419e-06
0.00124833
-3.94657e-14
-0.00158299
0.00185272
-1.58552e-12
-0.00153468
0.002433
-3.13825e-12
-0.00146311
0.00298129
-4.71314e-12
-0.0013687
0.00348975
-6.32409e-12
-0.00125201
0.00395057
-7.98354e-12
-0.00111377
0.00435603
-9.70206e-12
-0.000954996
0.00469855
-1.14879e-11
-0.000777013
0.0049708
-1.3346e-11
-0.000581611
0.00516586
-1.52774e-11
-0.000371185
0.00527746
-1.72774e-11
-0.000148914
0.00530036
-1.93227e-11
8.09187e-05
0.00523087
-2.13897e-11
0.000312807
0.00506758
-2.34606e-11
0.000539742
0.00481203
-2.54952e-11
0.000753283
0.00446962
-2.74425e-11
0.0009437
0.00405034
-2.92416e-11
0.00110054
0.00356918
-3.08242e-11
0.00121367
0.003046
-3.21185e-11
0.00127479
0.00250441
-3.30537e-11
0.00127917
-3.35616e-11
0.00122705
0.00196985
0.00062771
4.2484e-13
-0.00160778
1.31438e-06
0.00124833
-5.97772e-13
-0.00158299
0.00185272
-1.61794e-12
-0.00153468
0.002433
-2.64072e-12
-0.00146311
0.00298129
-3.67111e-12
-0.0013687
0.00348975
-4.71374e-12
-0.00125201
0.00395057
-5.77267e-12
-0.00111377
0.00435603
-6.85104e-12
-0.000954996
0.00469855
-7.95065e-12
-0.000777013
0.0049708
-9.07142e-12
-0.000581611
0.00516586
-1.02108e-11
-0.000371185
0.00527746
-1.13627e-11
-0.000148914
0.00530036
-1.25267e-11
8.09187e-05
0.00523087
-1.36895e-11
0.000312807
0.00506758
-1.48211e-11
0.000539742
0.00481203
-1.58924e-11
0.000753283
0.00446962
-1.68661e-11
0.0009437
0.00405034
-1.76977e-11
0.00110054
0.00356918
-1.8337e-11
0.00121367
0.003046
-1.87328e-11
0.00127479
0.00250441
-1.88369e-11
0.00127917
-1.86091e-11
0.00122705
0.00196985
0.00062771
-6.81079e-13
-0.00160778
1.31437e-06
0.00124833
-9.63843e-13
-0.00158299
0.00185272
-1.23535e-12
-0.00153468
0.002433
-1.49535e-12
-0.00146311
0.00298129
-1.74446e-12
-0.0013687
0.00348975
-1.98337e-12
-0.00125201
0.00395057
-2.21246e-12
-0.00111377
0.00435603
-2.43172e-12
-0.000954996
0.00469855
-2.64057e-12
-0.000777013
0.0049708
-2.8379e-12
-0.000581611
0.00516586
-3.02193e-12
-0.000371185
0.00527746
-3.19014e-12
-0.000148914
0.00530036
-3.33665e-12
8.09187e-05
0.00523087
-3.45745e-12
0.000312807
0.00506758
-3.55209e-12
0.000539742
0.00481203
-3.61712e-12
0.000753283
0.00446962
-3.64956e-12
0.0009437
0.00405034
-3.64731e-12
0.00110054
0.00356918
-3.60956e-12
0.00121367
0.003046
-3.53701e-12
0.00127479
0.00250441
-3.43168e-12
0.00127917
-3.29591e-12
0.00122705
0.00196985
0.00062771
-1.19307e-12
-0.00160778
1.31442e-06
0.00124833
-9.36934e-13
-0.00158299
0.00185272
-6.86872e-13
-0.00153468
0.002433
-4.39526e-13
-0.00146311
0.00298129
-1.93179e-13
-0.0013687
0.00348975
5.29904e-14
-0.00125201
0.00395057
2.99255e-13
-0.00111377
0.00435603
5.45428e-13
-0.000954996
0.00469855
7.9087e-13
-0.000777013
0.0049708
1.03444e-12
-0.000581611
0.00516586
1.27442e-12
-0.000371185
0.00527746
1.50853e-12
-0.000148914
0.00530036
1.72879e-12
8.09187e-05
0.00523087
1.93034e-12
0.000312807
0.00506758
2.11313e-12
0.000539742
0.00481203
2.27208e-12
0.000753283
0.00446962
2.4017e-12
0.0009437
0.00405034
2.49633e-12
0.00110054
0.00356918
2.55059e-12
0.00121367
0.003046
2.55981e-12
0.00127479
0.00250441
2.52029e-12
0.00127917
2.42905e-12
0.00122705
0.00196985
0.00062771
-1.42089e-12
-0.00160778
1.31437e-06
0.00124833
-4.13596e-13
-0.00158299
0.00185272
5.94157e-13
-0.00153468
0.002433
1.60904e-12
-0.00146311
0.00298129
2.63644e-12
-0.0013687
0.00348975
3.68098e-12
-0.00125201
0.00395057
4.74659e-12
-0.00111377
0.00435603
5.83633e-12
-0.000954996
0.00469855
6.95199e-12
-0.000777013
0.0049708
8.09362e-12
-0.000581611
0.00516586
9.25889e-12
-0.000371185
0.00527746
1.04423e-11
-0.000148914
0.00530036
1.1642e-11
8.09187e-05
0.00523087
1.28446e-11
0.000312807
0.00506758
1.4021e-11
0.000539742
0.00481203
1.51414e-11
0.000753283
0.00446962
1.61673e-11
0.0009437
0.00405034
1.7052e-11
0.00110054
0.00356918
1.7743e-11
0.00121367
0.003046
1.81854e-11
0.00127479
0.00250441
1.83277e-11
0.00127917
1.81262e-11
0.00122705
0.00196985
0.00062771
-1.22655e-12
-0.00160778
1.31438e-06
0.00124833
3.32519e-13
-0.00158299
0.00185272
1.87713e-12
-0.00153468
0.002433
3.42513e-12
-0.00146311
0.00298129
4.99234e-12
-0.0013687
0.00348975
6.59327e-12
-0.00125201
0.00395057
8.24097e-12
-0.00111377
0.00435603
9.94647e-12
-0.000954996
0.00469855
1.17183e-11
-0.000777013
0.0049708
1.35616e-11
-0.000581611
0.00516586
1.54777e-11