# Forces      
# CofR        : (0.000000e+00 0.000000e+00 0.000000e+00)
# Time        forces(pressure viscous porous)	moments(pressure viscous porous)
0.001         	((7.885001e+03 8.882352e-03 -2.120970e+02) (1.136185e+00 2.925986e-06 9.472678e-03) (0.000000e+00 0.000000e+00 0.000000e+00)) ((-1.166539e+03 4.187722e+03 -4.336747e+04) (5.209832e-02 7.050452e-01 -6.249007e+00) (0.000000e+00 0.000000e+00 0.000000e+00))
0.002         	((4.682801e+01 -9.977547e-03 3.371952e+01) (1.146954e+00 2.259460e-06 1.251504e-02) (0.000000e+00 0.000000e+00 0.000000e+00)) ((1.854634e+02 -9.286094e+01 -2.575901e+02) (6.883144e-02 7.017212e-01 -6.308237e+00) (0.000000e+00 0.000000e+00 0.000000e+00))
0.003         	((4.694488e+01 2.780427e-06 3.293521e+01) (1.243031e+00 -2.815466e-06 1.678837e-02) (0.000000e+00 0.000000e+00 0.000000e+00)) ((1.811437e+02 -9.008145e+01 -2.581968e+02) (9.233627e-02 7.457703e-01 -6.836673e+00) (0.000000e+00 0.000000e+00 0.000000e+00))
0.004         	((5.090667e+01 -3.627301e-03 3.312663e+01) (1.460375e+00 -5.917892e-06 2.352306e-02) (0.000000e+00 0.000000e+00 0.000000e+00)) ((1.821979e+02 -8.852084e+01 -2.799989e+02) (1.293779e-01 8.531371e-01 -8.032072e+00) (0.000000e+00 0.000000e+00 0.000000e+00))
0.005         	((5.470064e+01 -3.543161e-03 3.327363e+01) (1.784538e+00 -7.895584e-06 3.306425e-02) (0.000000e+00 0.000000e+00 0.000000e+00)) ((1.830064e+02 -8.689864e+01 -3.008654e+02) (1.818549e-01 1.011852e+00 -9.814973e+00) (0.000000e+00 0.000000e+00 0.000000e+00))
0.006         	((5.831010e+01 -3.493998e-03 3.338735e+01) (2.197308e+00 -8.625700e-06 4.543184e-02) (0.000000e+00 0.000000e+00 0.000000e+00)) ((1.836319e+02 -8.526247e+01 -3.207174e+02) (2.498767e-01 1.214159e+00 -1.208521e+01) (0.000000e+00 0.000000e+00 0.000000e+00))
0.007         	((6.170248e+01 -3.407586e-03 3.347072e+01) (2.674810e+00 -5.570051e-06 6.096786e-02) (0.000000e+00 0.000000e+00 0.000000e+00)) ((1.840904e+02 -8.363690e+01 -3.393753e+02) (3.353238e-01 1.451279e+00 -1.471146e+01) (0.000000e+00 0.000000e+00 0.000000e+00))
0.008         	((6.484442e+01 -3.161020e-03 3.352619e+01) (3.174650e+00 -1.984856e-06 7.963030e-02) (0.000000e+00 0.000000e+00 0.000000e+00)) ((1.843953e+02 -8.204561e+01 -3.566552e+02) (4.379662e-01 1.698549e+00 -1.746057e+01) (0.000000e+00 0.000000e+00 0.000000e+00))
0.009         	((6.771106e+01 -2.721178e-03 3.355756e+01) (3.661751e+00 1.794232e-06 9.965802e-02) (0.000000e+00 0.000000e+00 0.000000e+00)) ((1.845677e+02 -8.051460e+01 -3.724201e+02) (5.481175e-01 1.931284e+00 -2.013961e+01) (0.000000e+00 0.000000e+00 0.000000e+00))
0.01          	((7.028656e+01 -2.518976e-03 3.356384e+01) (4.144585e+00 4.894576e-06 1.208778e-01) (0.000000e+00 0.000000e+00 0.000000e+00)) ((1.846022e+02 -7.904614e+01 -3.865848e+02) (6.648250e-01 2.158850e+00 -2.279519e+01) (0.000000e+00 0.000000e+00 0.000000e+00))
0.011         	((7.257222e+01 -2.091041e-03 3.354733e+01) (4.619921e+00 7.600337e-06 1.435463e-01) (0.000000e+00 0.000000e+00 0.000000e+00)) ((1.845112e+02 -7.764938e+01 -3.991545e+02) (7.895013e-01 2.378722e+00 -2.540952e+01) (0.000000e+00 0.000000e+00 0.000000e+00))
0.012         	((7.457780e+01 -1.809780e-03 3.352517e+01) (5.082865e+00 1.308837e-05 1.680432e-01) (0.000000e+00 0.000000e+00 0.000000e+00)) ((1.843892e+02 -7.637973e+01 -4.101844e+02) (9.242323e-01 2.586505e+00 -2.795570e+01) (0.000000e+00 0.000000e+00 0.000000e+00))
0.013         	((7.631072e+01 -1.615431e-03 3.351264e+01) (5.531535e+00 1.816025e-05 1.936435e-01) (0.000000e+00 0.000000e+00 0.000000e+00)) ((1.843202e+02 -7.528905e+01 -4.197149e+02) (1.065033e+00 2.783547e+00 -3.042338e+01) (0.000000e+00 0.000000e+00 0.000000e+00))
0.014         	((7.778294e+01 -1.100678e-03 3.349522e+01) (5.964335e+00 1.935347e-05 2.200414e-01) (0.000000e+00 0.000000e+00 0.000000e+00)) ((1.842241e+02 -7.432100e+01 -4.278103e+02) (1.210221e+00 2.970038e+00 -3.280378e+01) (0.000000e+00 0.000000e+00 0.000000e+00))
0.015         	((7.900505e+01 -9.144168e-04 3.347327e+01) (6.380875e+00 1.982870e-05 2.474325e-01) (0.000000e+00 0.000000e+00 0.000000e+00)) ((1.841034e+02 -7.347044e+01 -4.345313e+02) (1.360873e+00 3.145131e+00 -3.509475e+01) (0.000000e+00 0.000000e+00 0.000000e+00))
0.016         	((8.000487e+01 -4.858936e-04 3.344617e+01) (6.780662e+00 2.135000e-05 2.757788e-01) (0.000000e+00 0.000000e+00 0.000000e+00)) ((1.839541e+02 -7.272153e+01 -4.400287e+02) (1.516777e+00 3.308668e+00 -3.729356e+01) (0.000000e+00 0.000000e+00 0.000000e+00))
0.017         	((8.079267e+01 -4.346942e-04 3.341537e+01) (7.163177e+00 2.650556e-05 3.050494e-01) (0.000000e+00 0.000000e+00 0.000000e+00)) ((1.837847e+02 -7.207560e+01 -4.443616e+02) (1.677763e+00 3.460419e+00 -3.939737e+01) (0.000000e+00 0.000000e+00 0.000000e+00))
0.018         	((8.138698e+01 -4.571061e-04 3.337857e+01) (7.528127e+00 3.184348e-05 3.350426e-01) (0.000000e+00 0.000000e+00 0.000000e+00)) ((1.835824e+02 -7.151745e+01 -4.476305e+02) (1.842724e+00 3.600679e+00 -4.140458e+01) (0.000000e+00 0.000000e+00 0.000000e+00))
0.019         	((8.180605e+01 2.073291e-04 3.333666e+01) (7.875471e+00 3.560233e-05 3.656716e-01) (0.000000e+00 0.000000e+00 0.000000e+00)) ((1.833515e+02 -7.103900e+01 -4.499330e+02) (2.011182e+00 3.729563e+00 -4.331495e+01) (0.000000e+00 0.000000e+00 0.000000e+00))
0.02          	((8.207603e+01 7.254931e-04 3.329035e+01) (8.205475e+00 3.246560e-05 3.969430e-01) (0.000000e+00 0.000000e+00 0.000000e+00)) ((1.830965e+02 -7.062978e+01 -4.514160e+02) (2.183176e+00 3.847136e+00 -4.512999e+01) (0.000000e+00 0.000000e+00 0.000000e+00))
0.021         	((8.221154e+01 8.259902e-04 3.323768e+01) (8.518265e+00 3.009370e-05 4.286926e-01) (0.000000e+00 0.000000e+00 0.000000e+00)) ((1.828068e+02 -7.027598e+01 -4.521609e+02) (2.357800e+00 3.953902e+00 -4.685035e+01) (0.000000e+00 0.000000e+00 0.000000e+00))
0.022         	((8.222122e+01 1.038317e-03 3.318179e+01) (8.813973e+00 2.848930e-05 4.607955e-01) (0.000000e+00 0.000000e+00 0.000000e+00)) ((1.824994e+02 -6.998361e+01 -4.522136e+02) (2.534368e+00 4.050216e+00 -4.847674e+01) (0.000000e+00 0.000000e+00 0.000000e+00))
0.023         	((8.214532e+01 1.177078e-03 3.311972e+01) (9.092921e+00 3.289031e-05 4.931759e-01) (0.000000e+00 0.000000e+00 0.000000e+00)) ((1.821580e+02 -6.972448e+01 -4.517958e+02) (2.712458e+00 4.136339e+00 -5.001094e+01) (0.000000e+00 0.000000e+00 0.000000e+00))
0.024         	((8.199606e+01 1.548818e-03 3.305290e+01) (9.355259e+00 3.698125e-05 5.257400e-01) (0.000000e+00 0.000000e+00 0.000000e+00)) ((1.817903e+02 -6.949685e+01 -4.509733e+02) (2.891559e+00 4.212605e+00 -5.145379e+01) (0.000000e+00 0.000000e+00 0.000000e+00))
0.025         	((8.178879e+01 1.671251e-03 3.298200e+01) (9.601286e+00 3.757541e-05 5.584053e-01) (0.000000e+00 0.000000e+00 0.000000e+00)) ((1.814002e+02 -6.929209e+01 -4.498329e+02) (3.071218e+00 4.279438e+00 -5.280695e+01) (0.000000e+00 0.000000e+00 0.000000e+00))
0.026         	((8.152149e+01 1.915203e-04 3.290439e+01) (9.831184e+00 1.357545e-05 5.909868e-01) (0.000000e+00 0.000000e+00 0.000000e+00)) ((1.809741e+02 -6.910244e+01 -4.483680e+02) (3.250420e+00 4.337354e+00 -5.407147e+01) (0.000000e+00 0.000000e+00 0.000000e+00))
0.027         	((8.121773e+01 7.410623e-04 3.282145e+01) (1.004522e+01 1.336830e-05 6.234052e-01) (0.000000e+00 0.000000e+00 0.000000e+00)) ((1.805176e+02 -6.891834e+01 -4.466952e+02) (3.428723e+00 4.386623e+00 -5.524869e+01) (0.000000e+00 0.000000e+00 0.000000e+00))
0.028         	((8.087574e+01 1.631507e-03 3.273317e+01) (1.024369e+01 1.323105e-05 6.555735e-01) (0.000000e+00 0.000000e+00 0.000000e+00)) ((1.800316e+02 -6.873986e+01 -4.448106e+02) (3.605651e+00 4.427633e+00 -5.634028e+01) (0.000000e+00 0.000000e+00 0.000000e+00))
0.029         	((8.052474e+01 1.376766e-03 3.264377e+01) (1.042701e+01 1.134058e-05 6.875175e-01) (0.000000e+00 0.000000e+00 0.000000e+00)) ((1.795400e+02 -6.856682e+01 -4.428810e+02) (3.781345e+00 4.460525e+00 -5.734851e+01) (0.000000e+00 0.000000e+00 0.000000e+00))
0.03          	((8.016324e+01 2.224573e-03 3.254859e+01) (1.059524e+01 1.766738e-05 7.189682e-01) (0.000000e+00 0.000000e+00 0.000000e+00)) ((1.790162e+02 -6.838766e+01 -4.408897e+02) (3.954323e+00 4.485991e+00 -5.827379e+01) (0.000000e+00 0.000000e+00 0.000000e+00))
0.031         	((7.979248e+01 9.599642e-04 3.244903e+01) (1.074870e+01 2.441200e-05 7.498875e-01) (0.000000e+00 0.000000e+00 0.000000e+00)) ((1.784693e+02 -6.820059e+01 -4.388555e+02) (4.124378e+00 4.504308e+00 -5.911778e+01) (0.000000e+00 0.000000e+00 0.000000e+00))
0.032         	((7.942138e+01 5.980942e-04 3.234556e+01) (1.088756e+01 3.232432e-05 7.801753e-01) (0.000000e+00 0.000000e+00 0.000000e+00)) ((1.779004e+02 -6.800358e+01 -4.368157e+02) (4.290959e+00 4.515844e+00 -5.988148e+01) (0.000000e+00 0.000000e+00 0.000000e+00))
0.033         	((7.905127e+01 -3.967476e-04 3.224285e+01) (1.101212e+01 2.160668e-05 8.098399e-01) (0.000000e+00 0.000000e+00 0.000000e+00)) ((1.773358e+02 -6.781156e+01 -4.347832e+02) (4.454112e+00 4.520718e+00 -6.056660e+01) (0.000000e+00 0.000000e+00 0.000000e+00))
0.034         	((7.869133e+01 -8.821423e-05 3.213349e+01) (1.112270e+01 9.713666e-07 8.388585e-01) (0.000000e+00 0.000000e+00 0.000000e+00)) ((1.767343e+02 -6.759383e+01 -4.328020e+02) (4.613716e+00 4.519154e+00 -6.117480e+01) (0.000000e+00 0.000000e+00 0.000000e+00))
0.035         	((7.836011e+01 7.880589e-03 3.202383e+01) (1.121946e+01 1.067594e-04 8.671055e-01) (0.000000e+00 0.000000e+00 0.000000e+00)) ((1.761289e+02 -6.736708e+01 -4.309556e+02) (4.769061e+00 4.511503e+00 -6.170673e+01) (0.000000e+00 0.000000e+00 0.000000e+00))
0.036         	((7.803790e+01 1.787435e-04 3.191384e+01) (1.130648e+01 1.191597e-04 8.941915e-01) (0.000000e+00 0.000000e+00 0.000000e+00)) ((1.755260e+02 -6.713470e+01 -4.292071e+02) (4.918031e+00 4.499892e+00 -6.218529e+01) (0.000000e+00 0.000000e+00 0.000000e+00))
0.037         	((7.774268e+01 1.274525e-03 3.180242e+01) (1.138153e+01 1.208978e-04 9.199231e-01) (0.000000e+00 0.000000e+00 0.000000e+00)) ((1.749125e+02 -6.688608e+01 -4.275788e+02) (5.059555e+00 4.485234e+00 -6.259807e+01) (0.000000e+00 0.000000e+00 0.000000e+00))
0.038         	((7.742969e+01 2.968045e-04 3.169206e+01) (1.144427e+01 1.285756e-04 9.439946e-01) (0.000000e+00 0.000000e+00 0.000000e+00)) ((1.743060e+02 -6.664859e+01 -4.258611e+02) (5.191945e+00 4.468821e+00 -6.294311e+01) (0.000000e+00 0.000000e+00 0.000000e+00))
0.039         	((7.714636e+01 -1.352995e-03 3.158266e+01) (1.149498e+01 9.217316e-05 9.662287e-01) (0.000000e+00 0.000000e+00 0.000000e+00)) ((1.737050e+02 -6.639717e+01 -4.243091e+02) (5.314239e+00 4.451759e+00 -6.322213e+01) (0.000000e+00 0.000000e+00 0.000000e+00))
0.04          	((7.686477e+01 -9.735814e-04 3.147259e+01) (1.152931e+01 6.902249e-05 9.886676e-01) (0.000000e+00 0.000000e+00 0.000000e+00)) ((1.730992e+02 -6.614594e+01 -4.227589e+02) (5.437656e+00 4.423483e+00 -6.341106e+01) (0.000000e+00 0.000000e+00 0.000000e+00))
0.041         	((7.660823e+01 -4.787749e-04 3.136694e+01) (1.155972e+01 2.510444e-05 1.009499e+00) (0.000000e+00 0.000000e+00 0.000000e+00)) ((1.725179e+02 -6.589496e+01 -4.213458e+02) (5.552239e+00 4.394702e+00 -6.357846e+01) (0.000000e+00 0.000000e+00 0.000000e+00))
0.042         	((7.635714e+01 -8.121318e-04 3.126223e+01) (1.157710e+01 1.680817e-05 1.033386e+00) (0.000000e+00 0.000000e+00 0.000000e+00)) ((1.719425e+02 -6.564321e+01 -4.199667e+02) (5.683620e+00 4.347139e+00 -6.367409e+01) (0.000000e+00 0.000000e+00 0.000000e+00))
0.043         	((7.611495e+01 -1.814466e-03 3.116204e+01) (1.157865e+01 3.002438e-06 1.054864e+00) (0.000000e+00 0.000000e+00 0.000000e+00)) ((1.713920e+02 -6.540297e+01 -4.186386e+02) (5.801752e+00 4.299033e+00 -6.368265e+01) (0.000000e+00 0.000000e+00 0.000000e+00))
0.044         	((7.590461e+01 -1.201278e-03 3.106269e+01) (1.157648e+01 -7.940639e-06 1.075946e+00) (0.000000e+00 0.000000e+00 0.000000e+00)) ((1.708452e+02 -6.514903e+01 -4.174795e+02) (5.917709e+00 4.247762e+00 -6.367075e+01) (0.000000e+00 0.000000e+00 0.000000e+00))
0.045         	((7.568576e+01 1.477016e-03 3.096993e+01) (1.156312e+01 -2.643099e-06 1.094048e+00) (0.000000e+00 0.000000e+00 0.000000e+00)) ((1.703337e+02 -6.492090e+01 -4.162663e+02) (6.017261e+00 4.199439e+00 -6.359727e+01) (0.000000e+00 0.000000e+00 0.000000e+00))
0.046         	((7.546845e+01 2.245789e-04 3.087744e+01) (1.153964e+01 -2.443869e-05 1.109406e+00) (0.000000e+00 0.000000e+00 0.000000e+00)) ((1.698256e+02 -6.469311e+01 -4.150754e+02) (6.101733e+00 4.154464e+00 -6.346816e+01) (0.000000e+00 0.000000e+00 0.000000e+00))
0.047         	((7.526905e+01 4.497011e-03 3.079359e+01) (1.150690e+01 -4.940942e-05 1.122557e+00) (0.000000e+00 0.000000e+00 0.000000e+00)) ((1.693634e+02 -6.448488e+01 -4.139636e+02) (6.174072e+00 4.111666e+00 -6.328814e+01) (0.000000e+00 0.000000e+00 0.000000e+00))
0.048         	((7.507580e+01 3.982677e-04 3.071110e+01) (1.146258e+01 -1.163847e-04 1.136212e+00) (0.000000e+00 0.000000e+00 0.000000e+00)) ((1.689107e+02 -6.427999e+01 -4.129152e+02) (6.249183e+00 4.058888e+00 -6.304460e+01) (0.000000e+00 0.000000e+00 0.000000e+00))
0.049         	((7.488753e+01 1.286557e-03 3.063505e+01) (1.141157e+01 -1.515777e-04 1.147233e+00) (0.000000e+00 0.000000e+00 0.000000e+00)) ((1.684920e+02 -6.409237e+01 -4.118763e+02) (6.309804e+00 4.011367e+00 -6.276411e+01) (0.000000e+00 0.000000e+00 0.000000e+00))
0.05          	((7.468919e+01 1.349249e-03 3.056258e+01) (1.135392e+01 -1.951359e-04 1.164155e+00) (0.000000e+00 0.000000e+00 0.000000e+00)) ((1.680936e+02 -6.392320e+01 -4.107857e+02) (6.402883e+00 3.935539e+00 -6.244716e+01) (0.000000e+00 0.000000e+00 0.000000e+00))
0.051         	((7.449967e+01 1.430611e-06 3.049985e+01) (1.129035e+01 -2.470643e-04 1.177183e+00) (0.000000e+00 0.000000e+00 0.000000e+00)) ((1.677491e+02 -6.378160e+01 -4.097478e+02) (6.474543e+00 3.868675e+00 -6.209764e+01) (0.000000e+00 0.000000e+00 0.000000e+00))
0.052         	((7.430073e+01 -4.991134e-04 3.043922e+01) (1.122568e+01 -3.037899e-04 1.187607e+00) (0.000000e+00 0.000000e+00 0.000000e+00)) ((1.674159e+02 -6.365302e+01 -4.086561e+02) (6.531887e+00 3.807170e+00 -6.174215e+01) (0.000000e+00 0.000000e+00 0.000000e+00))
0.053         	((7.408723e+01 2.974846e-03 3.038638e+01) (1.115223e+01 -3.693980e-04 1.195061e+00) (0.000000e+00 0.000000e+00 0.000000e+00)) ((1.671243e+02 -6.355229e+01 -4.074705e+02) (6.572892e+00 3.752917e+00 -6.133835e+01) (0.000000e+00 0.000000e+00 0.000000e+00))
0.054         	((7.388753e+01 4.517800e-04 3.033869e+01) (1.107340e+01 -4.737414e-04 1.204957e+00) (0.000000e+00 0.000000e+00 0.000000e+00)) ((1.668626e+02 -6.346521e+01 -4.063804e+02) (6.627336e+00 3.685917e+00 -6.090506e+01) (0.000000e+00 0.000000e+00 0.000000e+00))
0.055         	((7.367139e+01 -2.379608e-03 3.029777e+01) (1.098604e+01 -6.473759e-04 1.213483e+00) (0.000000e+00 0.000000e+00 0.000000e+00)) ((1.666389e+02 -6.341126e+01 -4.052010e+02) (6.674253e+00 3.618364e+00 -6.042507e+01) (0.000000e+00 0.000000e+00 0.000000e+00))
0.056         	((7.345812e+01 -1.118544e-03 3.025982e+01) (1.089330e+01 -9.135859e-04 1.224069e+00) (0.000000e+00 0.000000e+00 0.000000e+00)) ((1.664294e+02 -6.336668e+01 -4.040232e+02) (6.732524e+00 3.538303e+00 -5.991572e+01) (0.000000e+00 0.000000e+00 0.000000e+00))
0.057         	((7.325079e+01 -1.353467e-03 3.022978e+01) (1.079991e+01 3.617055e-03 1.229228e+00) (0.000000e+00 0.000000e+00 0.000000e+00)) ((1.662644e+02 -6.334523e+01 -4.028837e+02) (6.760274e+00 3.477098e+00 -5.939031e+01) (0.000000e+00 0.000000e+00 0.000000e+00))
0.058         	((7.303157e+01 1.466665e-03 3.020114e+01) (1.071716e+01 6.480835e-04 1.243208e+00) (0.000000e+00 0.000000e+00 0.000000e+00)) ((1.661061e+02 -6.333985e+01 -4.016689e+02) (6.837559e+00 3.381598e+00 -5.894287e+01) (0.000000e+00 0.000000e+00 0.000000e+00))
0.059         	((7.280193e+01 6.316397e-04 3.018383e+01) (1.062174e+01 -3.957864e-04 1.250640e+00) (0.000000e+00 0.000000e+00 0.000000e+00)) ((1.660110e+02 -6.337363e+01 -4.004081e+02) (6.878572e+00 3.306458e+00 -5.842084e+01) (0.000000e+00 0.000000e+00 0.000000e+00))
0.06          	((7.256411e+01 -3.894646e-04 3.016816e+01) (1.052823e+01 -4.154571e-04 1.254510e+00) (0.000000e+00 0.000000e+00 0.000000e+00)) ((1.659253e+02 -6.341848e+01 -3.991035e+02) (6.899865e+00 3.246012e+00 -5.790661e+01) (0.000000e+00 0.000000e+00 0.000000e+00))
0.061         	((7.233279e+01 2.297880e-03 3.015615e+01) (1.042701e+01 -3.925525e-04 1.255010e+00) (0.000000e+00 0.000000e+00 0.000000e+00)) ((1.658579e+02 -6.347539e+01 -3.978233e+02) (6.902605e+00 3.194379e+00 -5.734988e+01) (0.000000e+00 0.000000e+00 0.000000e+00))
0.062         	((7.208894e+01 2.974730e-03 3.014977e+01) (1.032075e+01 -3.674170e-04 1.256448e+00) (0.000000e+00 0.000000e+00 0.000000e+00)) ((1.658226e+02 -6.355855e+01 -3.964793e+02) (6.910500e+00 3.135676e+00 -5.676534e+01) (0.000000e+00 0.000000e+00 0.000000e+00))
0.063         	((7.185599e+01 -5.634239e-04 3.014616e+01) (1.021139e+01 -3.843483e-04 1.265478e+00) (0.000000e+00 0.000000e+00 0.000000e+00)) ((1.658043e+02 -6.364874e+01 -3.952094e+02) (6.960171e+00 3.044056e+00 -5.616386e+01) (0.000000e+00 0.000000e+00 0.000000e+00))
0.064         	((7.161943e+01 8.576848e-04 3.015121e+01) (1.011090e+01 -3.282253e-04 1.271047e+00) (0.000000e+00 0.000000e+00 0.000000e+00)) ((1.658311e+02 -6.376836e+01 -3.939042e+02) (6.990772e+00 2.970085e+00 -5.561102e+01) (0.000000e+00 0.000000e+00 0.000000e+00))
0.065         	((7.137631e+01 -4.333151e-04 3.015849e+01) (1.000360e+01 4.552005e-04 1.269139e+00) (0.000000e+00 0.000000e+00 0.000000e+00)) ((1.658721e+02 -6.389789e+01 -3.925724e+02) (6.980081e+00 2.921554e+00 -5.501878e+01) (0.000000e+00 0.000000e+00 0.000000e+00))
0.066         	((7.111784e+01 -1.773860e-03 3.016928e+01) (9.902109e+00 -9.632499e-04 1.278043e+00) (0.000000e+00 0.000000e+00 0.000000e+00)) ((1.659321e+02 -6.404926e+01 -3.911547e+02) (7.029296e+00 2.830967e+00 -5.446428e+01) (0.000000e+00 0.000000e+00 0.000000e+00))
0.067         	((7.085673e+01 -1.856858e-03 3.018687e+01) (9.800588e+00 2.901308e-03 1.281034e+00) (0.000000e+00 0.000000e+00 0.000000e+00)) ((1.660291e+02 -6.422827e+01 -3.897186e+02) (7.045265e+00 2.762574e+00 -5.389581e+01) (0.000000e+00 0.000000e+00 0.000000e+00))
0.068         	((7.059640e+01 2.238169e-03 3.020586e+01) (9.697168e+00 6.640178e-04 1.279456e+00) (0.000000e+00 0.000000e+00 0.000000e+00)) ((1.661318e+02 -6.441300e+01 -3.882741e+02) (7.036909e+00 2.710667e+00 -5.333286e+01) (0.000000e+00 0.000000e+00 0.000000e+00))
0.069         	((7.035254e+01 1.545226e-03 3.023041e+01) (9.604549e+00 -1.558218e-04 1.282408e+00) (0.000000e+00 0.000000e+00 0.000000e+00)) ((1.662668e+02 -6.460889e+01 -3.869346e+02) (7.053257e+00 2.650149e+00 -5.282562e+01) (0.000000e+00 0.000000e+00 0.000000e+00))
0.07          	((7.011049e+01 8.288843e-04 3.025533e+01) (9.501423e+00 -1.353883e-04 1.282989e+00) (0.000000e+00 0.000000e+00 0.000000e+00)) ((1.664041e+02 -6.480862e+01 -3.856056e+02) (7.056443e+00 2.592097e+00 -5.225840e+01) (0.000000e+00 0.000000e+00 0.000000e+00))
0.071         	((6.987536e+01 1.011012e-03 3.028545e+01) (9.395278e+00 -1.417439e-04 1.282146e+00) (0.000000e+00 0.000000e+00 0.000000e+00)) ((1.665697e+02 -6.502385e+01 -3.843123e+02) (7.051810e+00 2.537347e+00 -5.167462e+01) (0.000000e+00 0.000000e+00 0.000000e+00))
0.072         	((6.963967e+01 2.974460e-04 3.031742e+01) (9.291297e+00 -1.310499e-04 1.279873e+00) (0.000000e+00 0.000000e+00 0.000000e+00)) ((1.667460e+02 -6.524561e+01 -3.830178e+02) (7.039306e+00 2.488510e+00 -5.110266e+01) (0.000000e+00 0.000000e+00 0.000000e+00))
0.073         	((6.940445e+01 -4.617273e-04 3.035310e+01) (9.185647e+00 -6.700760e-05 1.282721e+00) (0.000000e+00 0.000000e+00 0.000000e+00)) ((1.669426e+02 -6.548121e+01 -3.817261e+02) (7.054953e+00 2.417402e+00 -5.052135e+01) (0.000000e+00 0.000000e+00 0.000000e+00))
0.074         	((6.914975e+01 1.059751e-03 3.039522e+01) (9.078061e+00 -1.928826e-05 1.291389e+00) (0.000000e+00 0.000000e+00 0.000000e+00)) ((1.671736e+02 -6.574812e+01 -3.803202e+02) (7.102610e+00 2.321652e+00 -4.992948e+01) (0.000000e+00 0.000000e+00 0.000000e+00))
0.075         	((6.890110e+01 -7.436543e-04 3.043874e+01) (8.970748e+00 -3.908630e-05 1.298542e+00) (0.000000e+00 0.000000e+00 0.000000e+00)) ((1.674136e+02 -6.601829e+01 -3.789588e+02) (7.141954e+00 2.231338e+00 -4.933932e+01) (0.000000e+00 0.000000e+00 0.000000e+00))
0.076         	((6.865226e+01 -2.796154e-04 3.048585e+01) (8.864519e+00 5.948209e-07 1.300114e+00) (0.000000e+00 0.000000e+00 0.000000e+00)) ((1.676725e+02 -6.630311e+01 -3.775883e+02) (7.150574e+00 2.164663e+00 -4.875497e+01) (0.000000e+00 0.000000e+00 0.000000e+00))
0.077         	((6.842063e+01 -2.081166e-03 3.053245e+01) (8.768776e+00 -7.752573e-05 1.301116e+00) (0.000000e+00 0.000000e+00 0.000000e+00)) ((1.679293e+02 -6.658056e+01 -3.763203e+02) (7.156110e+00 2.106147e+00 -4.822860e+01) (0.000000e+00 0.000000e+00 0.000000e+00))
0.078         	((6.819241e+01 1.046249e-03 3.058084e+01) (8.673225e+00 -2.112477e-04 1.302883e+00) (0.000000e+00 0.000000e+00 0.000000e+00)) ((1.681942e+02 -6.685969e+01 -3.750544e+02) (7.165873e+00 2.042378e+00 -4.770348e+01) (0.000000e+00 0.000000e+00 0.000000e+00))
0.079         	((6.796397e+01 1.613019e-03 3.063141e+01) (8.575438e+00 -3.199221e-04 1.301598e+00) (0.000000e+00 0.000000e+00 0.000000e+00)) ((1.684720e+02 -6.715041e+01 -3.737962e+02) (7.158838e+00 1.989926e+00 -4.716599e+01) (0.000000e+00 0.000000e+00 0.000000e+00))
0.08          	((6.774278e+01 -2.980287e-04 3.068533e+01) (8.478609e+00 -4.310679e-04 1.297952e+00) (0.000000e+00 0.000000e+00 0.000000e+00)) ((1.687692e+02 -6.744789e+01 -3.725864e+02) (7.138814e+00 1.947839e+00 -4.663376e+01) (0.000000e+00 0.000000e+00 0.000000e+00))
0.081         	((6.752108e+01 6.698427e-05 3.073976e+01) (8.380895e+00 -5.385034e-04 1.290912e+00) (0.000000e+00 0.000000e+00 0.000000e+00)) ((1.690685e+02 -6.774877e+01 -3.713658e+02) (7.100122e+00 1.918982e+00 -4.609665e+01) (0.000000e+00 0.000000e+00 0.000000e+00))
0.082         	((6.730153e+01 1.158155e-03 3.079594e+01) (8.282211e+00 -5.943572e-04 1.293219e+00) (0.000000e+00 0.000000e+00 0.000000e+00)) ((1.693771e+02 -6.805589e+01 -3.701546e+02) (7.112817e+00 1.851986e+00 -4.555407e+01) (0.000000e+00 0.000000e+00 0.000000e+00))
0.083         	((6.707920e+01 7.526114e-04 3.085654e+01) (8.182318e+00 -7.221662e-04 1.302084e+00) (0.000000e+00 0.000000e+00 0.000000e+00)) ((1.697107e+02 -6.838122e+01 -3.689332e+02) (7.161605e+00 1.757353e+00 -4.500504e+01) (0.000000e+00 0.000000e+00 0.000000e+00))
0.084         	((6.686654e+01 1.447997e-04 3.091908e+01) (8.085600e+00 -9.015723e-04 1.302678e+00) (0.000000e+00 0.000000e+00 0.000000e+00)) ((1.700547e+02 -6.870782e+01 -3.677641e+02) (7.164915e+00 1.698030e+00 -4.447365e+01) (0.000000e+00 0.000000e+00 0.000000e+00))
0.085         	((6.666200e+01 6.546097e-04 3.098186e+01) (7.991159e+00 -1.100070e-03 1.299441e+00) (0.000000e+00 0.000000e+00 0.000000e+00)) ((1.704000e+02 -6.903545e+01 -3.666386e+02) (7.147148e+00 1.655586e+00 -4.395478e+01) (0.000000e+00 0.000000e+00 0.000000e+00))
0.086         	((6.646750e+01 -1.319196e-03 3.104573e+01) (7.894993e+00 -1.362002e-03 1.297001e+00) (0.000000e+00 0.000000e+00 0.000000e+00)) ((1.707525e+02 -6.936193e+01 -3.655763e+02) (7.133765e+00 1.607942e+00 -4.342652e+01) (0.000000e+00 0.000000e+00 0.000000e+00))
0.087         	((6.626542e+01 -5.555333e-04 3.111001e+01) (7.802101e+00 -1.808672e-03 1.292909e+00) (0.000000e+00 0.000000e+00 0.000000e+00)) ((1.711055e+02 -6.969168e+01 -3.644615e+02) (7.111324e+00 1.568846e+00 -4.291677e+01) (0.000000e+00 0.000000e+00 0.000000e+00))
0.088         	((6.606721e+01 -3.993675e-04 3.117676e+01) (7.716120e+00 2.040024e-03 1.287036e+00) (0.000000e+00 0.000000e+00 0.000000e+00)) ((1.714726e+02 -7.002948e+01 -3.633706e+02) (7.078426e+00 1.539207e+00 -4.243363e+01) (0.000000e+00 0.000000e+00 0.000000e+00))
0.089         	((6.586545e+01 8.834224e-04 3.124166e+01) (7.625971e+00 3.533028e-03 1.279842e+00) (0.000000e+00 0.000000e+00 0.000000e+00)) ((1.718292e+02 -7.036464e+01 -3.622575e+02) (7.038623e+00 1.513710e+00 -4.193378e+01) (0.000000e+00 0.000000e+00 0.000000e+00))
0.09          	((6.566653e+01 7.274856e-04 3.131069e+01) (7.533714e+00 3.759580e-03 1.283699e+00) (0.000000e+00 0.000000e+00 0.000000e+00)) ((1.722091e+02 -7.071232e+01 -3.611630e+02) (7.059793e+00 1.442540e+00 -4.142569e+01) (0.000000e+00 0.000000e+00 0.000000e+00))
0.091         	((6.546953e+01 1.311348e-03 3.138088e+01) (7.444196e+00 3.986564e-03 1.282054e+00) (0.000000e+00 0.000000e+00 0.000000e+00)) ((1.725945e+02 -7.106551e+01 -3.600779e+02) (7.050701e+00 1.395318e+00 -4.093270e+01) (0.000000e+00 0.000000e+00 0.000000e+00))
0.092         	((6.528852e+01 4.368856e-04 3.145174e+01) (7.356025e+00 4.161561e-03 1.277488e+00) (0.000000e+00 0.000000e+00 0.000000e+00)) ((1.729849e+02 -7.141215e+01 -3.590855e+02) (7.025563e+00 1.360944e+00 -4.044724e+01) (0.000000e+00 0.000000e+00 0.000000e+00))
0.093         	((6.511374e+01 2.558234e-03 3.152086e+01) (7.275548e+00 7.685913e-03 1.273354e+00) (0.000000e+00 0.000000e+00 0.000000e+00)) ((1.733642e+02 -7.175154e+01 -3.581174e+02) (7.001818e+00 1.327220e+00 -3.999525e+01) (0.000000e+00 0.000000e+00 0.000000e+00))
0.094         	((6.492404e+01 2.036797e-03 3.158954e+01) (7.197872e+00 6.081128e-03 1.268034e+00) (0.000000e+00 0.000000e+00 0.000000e+00)) ((1.737422e+02 -7.209485e+01 -3.570749e+02) (6.973048e+00 1.299927e+00 -3.957222e+01) (0.000000e+00 0.000000e+00 0.000000e+00))
0.095         	((6.473918e+01 -5.258375e-05 3.165967e+01) (7.118428e+00 5.247511e-03 1.260653e+00) (0.000000e+00 0.000000e+00 0.000000e+00)) ((1.741285e+02 -7.244207e+01 -3.560654e+02) (6.932724e+00 1.280511e+00 -3.913745e+01) (0.000000e+00 0.000000e+00 0.000000e+00))
0.096         	((6.455954e+01 -1.390392e-04 3.173154e+01) (7.033139e+00 5.385293e-03 1.260171e+00) (0.000000e+00 0.000000e+00 0.000000e+00)) ((1.745239e+02 -7.279401e+01 -3.550773e+02) (6.930056e+00 1.229265e+00 -3.866800e+01) (0.000000e+00 0.000000e+00 0.000000e+00))
0.097         	((6.438056e+01 -1.118280e-04 3.180458e+01) (6.946590e+00 5.605201e-03 1.267344e+00) (0.000000e+00 0.000000e+00 0.000000e+00)) ((1.749254e+02 -7.314919e+01 -3.540934e+02) (6.969463e+00 1.146249e+00 -3.819141e+01) (0.000000e+00 0.000000e+00 0.000000e+00))
0.098         	((6.420391e+01 1.460793e-03 3.187973e+01) (6.865352e+00 5.834959e-03 1.266168e+00) (0.000000e+00 0.000000e+00 0.000000e+00)) ((1.753379e+02 -7.351243e+01 -3.531162e+02) (6.962957e+00 1.100802e+00 -3.774400e+01) (0.000000e+00 0.000000e+00 0.000000e+00))
0.099         	((6.403706e+01 -7.908845e-04 3.195346e+01) (6.782358e+00 6.086757e-03 1.269435e+00) (0.000000e+00 0.000000e+00 0.000000e+00)) ((1.757444e+02 -7.386704e+01 -3.522062e+02) (6.980892e+00 1.036369e+00 -3.728689e+01) (0.000000e+00 0.000000e+00 0.000000e+00))
0.1           	((6.386209e+01 -3.872554e-04 3.202626e+01) (6.700465e+00 6.421896e-03 1.269136e+00) (0.000000e+00 0.000000e+00 0.000000e+00)) ((1.761444e+02 -7.422243e+01 -3.512427e+02) (6.979199e+00 9.858319e-01 -3.683564e+01) (0.000000e+00 0.000000e+00 0.000000e+00))
0.101         	((6.368888e+01 3.158054e-04 3.209886e+01) (6.616609e+00 2.549713e-03 1.275396e+00) (0.000000e+00 0.000000e+00 0.000000e+00)) ((1.765432e+02 -7.457668e+01 -3.502871e+02) (7.014265e+00 9.054741e-01 -3.638477e+01) (0.000000e+00 0.000000e+00 0.000000e+00))
0.102         	((6.351557e+01 -2.947576e-03 3.217201e+01) (6.538478e+00 1.060200e-03 1.276277e+00) (0.000000e+00 0.000000e+00 0.000000e+00)) ((1.769470e+02 -7.493242e+01 -3.493448e+02) (7.019345e+00 8.515395e-01 -3.595900e+01) (0.000000e+00 0.000000e+00 0.000000e+00))
0.103         	((6.334427e+01 -3.962246e-03 3.224461e+01) (6.464901e+00 9.666459e-04 1.272129e+00) (0.000000e+00 0.000000e+00 0.000000e+00)) ((1.773467e+02 -7.528674e+01 -3.484062e+02) (6.996551e+00 8.218932e-01 -3.555454e+01) (0.000000e+00 0.000000e+00 0.000000e+00))
0.104         	((6.318318e+01 -4.860468e-03 3.231739e+01) (6.391732e+00 8.773386e-04 1.267756e+00) (0.000000e+00 0.000000e+00 0.000000e+00)) ((1.777477e+02 -7.563666e+01 -3.475237e+02) (6.972510e+00 7.938321e-01 -3.515233e+01) (0.000000e+00 0.000000e+00 0.000000e+00))
0.105         	((6.302203e+01 -3.764630e-03 3.238851e+01) (6.319459e+00 7.997771e-04 1.263638e+00) (0.000000e+00 0.000000e+00 0.000000e+00)) ((1.781383e+02 -7.598074e+01 -3.466339e+02) (6.949866e+00 7.654265e-01 -3.475502e+01) (0.000000e+00 0.000000e+00 0.000000e+00))
0.106         	((6.287086e+01 -1.043378e-03 3.245955e+01) (6.248266e+00 8.183461e-04 1.259509e+00) (0.000000e+00 0.000000e+00 0.000000e+00)) ((1.785279e+02 -7.632142e+01 -3.457944e+02) (6.927137e+00 7.377982e-01 -3.436338e+01) (0.000000e+00 0.000000e+00 0.000000e+00))
0.107         	((6.272836e+01 -3.149692e-03 3.252996e+01) (6.178117e+00 7.689666e-04 1.255347e+00) (0.000000e+00 0.000000e+00 0.000000e+00)) ((1.789160e+02 -7.665501e+01 -3.450171e+02) (6.904256e+00 7.111034e-01 -3.397766e+01) (0.000000e+00 0.000000e+00 0.000000e+00))
0.108         	((6.258543e+01 -4.088951e-03 3.259966e+01) (6.110845e+00 7.318572e-04 1.250900e+00) (0.000000e+00 0.000000e+00 0.000000e+00)) ((1.793000e+02 -7.698627e+01 -3.442337e+02) (6.879807e+00 6.864144e-01 -3.360775e+01) (0.000000e+00 0.000000e+00 0.000000e+00))
0.109         	((6.243869e+01 -4.068534e-03 3.266841e+01) (6.045020e+00 6.959760e-04 1.246015e+00) (0.000000e+00 0.000000e+00 0.000000e+00)) ((1.796780e+02 -7.731708e+01 -3.434266e+02) (6.852946e+00 6.643174e-01 -3.324579e+01) (0.000000e+00 0.000000e+00 0.000000e+00))
0.11          	((6.229937e+01 -2.995315e-03 3.273877e+01) (5.979218e+00 6.722091e-04 1.241274e+00) (0.000000e+00 0.000000e+00 0.000000e+00)) ((1.800646e+02 -7.764824e+01 -3.426571e+02) (6.826877e+00 6.423554e-01 -3.288398e+01) (0.000000e+00 0.000000e+00 0.000000e+00))
0.111         	((6.216704e+01 -3.707235e-03 3.280720e+01) (5.913617e+00 6.178548e-04 1.237132e+00) (0.000000e+00 0.000000e+00 0.000000e+00)) ((1.804412e+02 -7.797075e+01 -3.419312e+02) (6.804115e+00 6.181787e-01 -3.252334e+01) (0.000000e+00 0.000000e+00 0.000000e+00))