# Force bins  
# bins        : 5
# start       : 5.000000e-02
# delta       : 1.900190e-01
# direction   : (0.000000e+00 0.000000e+00 1.000000e+00)
# x co-ords  :	0.000000e+00	0.000000e+00	0.000000e+00	0.000000e+00	0.000000e+00
# y co-ords  :	0.000000e+00	0.000000e+00	0.000000e+00	0.000000e+00	0.000000e+00
# z co-ords  :	2.400190e-01	4.300380e-01	6.200570e-01	8.100760e-01	1.000095e+00
# Time        	forces(0)[pressure,viscous,porous]	moments(0)[pressure,viscous,porous]	forces(1)[pressure,viscous,porous]	moments(1)[pressure,viscous,porous]	forces(2)[pressure,viscous,porous]	moments(2)[pressure,viscous,porous]	forces(3)[pressure,viscous,porous]	moments(3)[pressure,viscous,porous]	forces(4)[pressure,viscous,porous]	moments(4)[pressure,viscous,porous]
0.001         	((1.797609e+03 -1.006818e-03 0.000000e+00) (1.780573e-01 7.363025e-07 -7.851739e-04) (0.000000e+00 0.000000e+00 0.000000e+00)) ((9.600499e-05 1.795254e+02 -9.886851e+03) (-4.318516e-03 1.570546e-02 -9.793121e-01) (0.000000e+00 0.000000e+00 0.000000e+00))	((1.758184e+03 -2.204396e-04 0.000000e+00) (1.775684e-01 7.025742e-07 6.253794e-04) (0.000000e+00 0.000000e+00 0.000000e+00)) ((5.110141e-05 5.266897e+02 -9.670010e+03) (3.439356e-03 5.462122e-02 -9.766233e-01) (0.000000e+00 0.000000e+00 0.000000e+00))	((1.668719e+03 1.365648e-03 0.000000e+00) (1.767814e-01 6.283159e-07 1.193097e-03) (0.000000e+00 0.000000e+00 0.000000e+00)) ((-7.070773e-04 8.328466e+02 -9.177948e+03) (6.561683e-03 9.112676e-02 -9.722950e-01) (0.000000e+00 0.000000e+00 0.000000e+00))	((1.499293e+03 3.459312e-03 0.000000e+00) (1.769040e-01 5.147899e-07 2.054372e-03) (0.000000e+00 0.000000e+00 0.000000e+00)) ((-2.448419e-03 1.046670e+03 -8.246098e+03) (1.129864e-02 1.293059e-01 -9.729698e-01) (0.000000e+00 0.000000e+00 0.000000e+00))	((1.161197e+03 5.284649e-03 -2.120970e+02) (4.268742e-01 3.440040e-07 6.385003e-03) (0.000000e+00 0.000000e+00 0.000000e+00)) ((-1.166536e+03 1.601991e+03 -6.386564e+03) (3.511715e-02 4.142859e-01 -2.347807e+00) (0.000000e+00 0.000000e+00 0.000000e+00))
0.002         	((9.310419e+00 1.204403e-03 0.000000e+00) (1.803563e-01 4.326919e-07 -5.102316e-04) (0.000000e+00 0.000000e+00 0.000000e+00)) ((-1.150597e-04 9.316659e-01 -5.120348e+01) (-2.806288e-03 1.496237e-02 -9.919579e-01) (0.000000e+00 0.000000e+00 0.000000e+00))	((9.299184e+00 2.960146e-04 0.000000e+00) (1.788491e-01 5.198880e-07 6.274037e-04) (0.000000e+00 0.000000e+00 0.000000e+00)) ((-7.141158e-05 2.789157e+00 -5.114481e+01) (3.450536e-03 5.501888e-02 -9.836680e-01) (0.000000e+00 0.000000e+00 0.000000e+00))	((9.241121e+00 -1.541847e-03 0.000000e+00) (1.779902e-01 4.634421e-07 1.219780e-03) (0.000000e+00 0.000000e+00 0.000000e+00)) ((7.989831e-04 4.619832e+00 -5.083184e+01) (6.708505e-03 9.167131e-02 -9.789443e-01) (0.000000e+00 0.000000e+00 0.000000e+00))	((9.221904e+00 -3.946326e-03 0.000000e+00) (1.780194e-01 3.882486e-07 2.257776e-03) (0.000000e+00 0.000000e+00 0.000000e+00)) ((2.793010e-03 6.455959e+00 -5.073446e+01) (1.241743e-02 1.294148e-01 -9.791052e-01) (0.000000e+00 0.000000e+00 0.000000e+00))	((9.755385e+00 -5.989792e-03 3.371952e+01) (4.317388e-01 4.551899e-07 8.920314e-03) (0.000000e+00 0.000000e+00 0.000000e+00)) ((1.854600e+02 -1.076576e+02 -5.367552e+01) (4.906125e-02 4.106538e-01 -2.374561e+00) (0.000000e+00 0.000000e+00 0.000000e+00))
0.003         	((9.349114e+00 -1.751103e-06 0.000000e+00) (2.014355e-01 -1.945225e-06 -2.629282e-04) (0.000000e+00 0.000000e+00 0.000000e+00)) ((1.851699e-07 9.355269e-01 -5.142013e+01) (-1.445642e-03 1.557881e-02 -1.107899e+00) (0.000000e+00 0.000000e+00 0.000000e+00))	((9.335458e+00 -2.602335e-06 0.000000e+00) (1.920090e-01 -3.206656e-07 6.668814e-04) (0.000000e+00 0.000000e+00 0.000000e+00)) ((7.911826e-07 2.799990e+00 -5.134503e+01) (3.667881e-03 5.897488e-02 -1.056050e+00) (0.000000e+00 0.000000e+00 0.000000e+00))	((9.273735e+00 -2.829999e-06 0.000000e+00) (1.907198e-01 -2.891015e-07 1.325361e-03) (0.000000e+00 0.000000e+00 0.000000e+00)) ((1.398578e-06 4.636109e+00 -5.100555e+01) (7.289517e-03 9.794540e-02 -1.048959e+00) (0.000000e+00 0.000000e+00 0.000000e+00))	((9.250124e+00 3.152254e-07 0.000000e+00) (1.904007e-01 -2.562806e-07 2.645055e-03) (0.000000e+00 0.000000e+00 0.000000e+00)) ((-2.899002e-07 6.475588e+00 -5.087567e+01) (1.454781e-02 1.372612e-01 -1.047203e+00) (0.000000e+00 0.000000e+00 0.000000e+00))	((9.736449e+00 9.648639e-06 3.293521e+01) (4.684661e-01 -4.193839e-09 1.241400e-02) (0.000000e+00 0.000000e+00 0.000000e+00)) ((1.811437e+02 -1.049287e+02 -5.355043e+01) (6.827670e-02 4.360100e-01 -2.576562e+00) (0.000000e+00 0.000000e+00 0.000000e+00))
0.004         	((1.015629e+01 -8.883620e-04 0.000000e+00) (2.514777e-01 -3.841671e-06 1.778008e-04) (0.000000e+00 0.000000e+00 0.000000e+00)) ((8.855811e-05 1.016107e+00 -5.586258e+01) (9.787635e-04 1.748806e-02 -1.383136e+00) (0.000000e+00 0.000000e+00 0.000000e+00))	((1.012407e+01 -8.488682e-04 0.000000e+00) (2.216864e-01 -6.899305e-07 7.463741e-04) (0.000000e+00 0.000000e+00 0.000000e+00)) ((2.539388e-04 3.036272e+00 -5.568524e+01) (4.105184e-03 6.790553e-02 -1.219276e+00) (0.000000e+00 0.000000e+00 0.000000e+00))	((1.003879e+01 -7.671943e-04 0.000000e+00) (2.193728e-01 -5.067570e-07 1.520189e-03) (0.000000e+00 0.000000e+00 0.000000e+00)) ((3.822640e-04 5.018393e+00 -5.521592e+01) (8.361159e-03 1.121758e-01 -1.206551e+00) (0.000000e+00 0.000000e+00 0.000000e+00))	((1.001358e+01 -6.322607e-04 0.000000e+00) (2.181816e-01 -5.618820e-07 3.282188e-03) (0.000000e+00 0.000000e+00 0.000000e+00)) ((4.406233e-04 7.010423e+00 -5.507682e+01) (1.805220e-02 1.556195e-01 -1.199998e+00) (0.000000e+00 0.000000e+00 0.000000e+00))	((1.057394e+01 -4.906159e-04 3.312663e+01) (5.496566e-01 -3.176515e-07 1.779650e-02) (0.000000e+00 0.000000e+00 0.000000e+00)) ((1.821968e+02 -1.046020e+02 -5.815830e+01) (9.788056e-02 4.999482e-01 -3.023110e+00) (0.000000e+00 0.000000e+00 0.000000e+00))
0.005         	((1.092970e+01 -8.718263e-04 0.000000e+00) (3.301462e-01 -5.235446e-06 1.129763e-03) (0.000000e+00 0.000000e+00 0.000000e+00)) ((8.686053e-05 1.093280e+00 -6.011628e+01) (6.214870e-03 1.957679e-02 -1.815816e+00) (0.000000e+00 0.000000e+00 0.000000e+00))	((1.087699e+01 -8.301341e-04 0.000000e+00) (2.654205e-01 -7.889327e-07 8.401748e-04) (0.000000e+00 0.000000e+00 0.000000e+00)) ((2.483135e-04 3.261844e+00 -5.982624e+01) (4.621105e-03 8.112228e-02 -1.459814e+00) (0.000000e+00 0.000000e+00 0.000000e+00))	((1.076920e+01 -7.500768e-04 0.000000e+00) (2.614718e-01 -7.086046e-07 1.757147e-03) (0.000000e+00 0.000000e+00 0.000000e+00)) ((3.737343e-04 5.383375e+00 -5.923311e+01) (9.664492e-03 1.332072e-01 -1.438096e+00) (0.000000e+00 0.000000e+00 0.000000e+00))	((1.074410e+01 -6.179050e-04 0.000000e+00) (2.587639e-01 -6.497346e-07 4.100906e-03) (0.000000e+00 0.000000e+00 0.000000e+00)) ((4.305948e-04 7.522217e+00 -5.909460e+01) (2.255519e-02 1.827361e-01 -1.423201e+00) (0.000000e+00 0.000000e+00 0.000000e+00))	((1.138065e+01 -4.732184e-04 3.327363e+01) (6.687357e-01 -5.128661e-07 2.523626e-02) (0.000000e+00 0.000000e+00 0.000000e+00)) ((1.830053e+02 -1.041594e+02 -6.259519e+01) (1.387992e-01 5.952101e-01 -3.678045e+00) (0.000000e+00 0.000000e+00 0.000000e+00))
0.006         	((1.166615e+01 -8.623355e-04 0.000000e+00) (4.287366e-01 -5.897602e-06 2.642892e-03) (0.000000e+00 0.000000e+00 0.000000e+00)) ((8.581637e-05 1.166727e+00 -6.416674e+01) (1.453726e-02 2.112770e-02 -2.358065e+00) (0.000000e+00 0.000000e+00 0.000000e+00))	((1.159119e+01 -8.191664e-04 0.000000e+00) (3.214714e-01 -6.768754e-07 9.270401e-04) (0.000000e+00 0.000000e+00 0.000000e+00)) ((2.449967e-04 3.475799e+00 -6.375430e+01) (5.098826e-03 9.815138e-02 -1.768094e+00) (0.000000e+00 0.000000e+00 0.000000e+00))	((1.146211e+01 -7.379821e-04 0.000000e+00) (3.153055e-01 -8.108710e-07 1.997332e-03) (0.000000e+00 0.000000e+00 0.000000e+00)) ((3.676829e-04 5.729634e+00 -6.304407e+01) (1.098553e-02 1.602670e-01 -1.734181e+00) (0.000000e+00 0.000000e+00 0.000000e+00))	((1.143892e+01 -6.089226e-04 0.000000e+00) (3.104050e-01 -5.844560e-07 5.040951e-03) (0.000000e+00 0.000000e+00 0.000000e+00)) ((4.243548e-04 8.009049e+00 -6.291614e+01) (2.772538e-02 2.174872e-01 -1.707227e+00) (0.000000e+00 0.000000e+00 0.000000e+00))	((1.215173e+01 -4.655911e-04 3.338735e+01) (8.213898e-01 -6.558959e-07 3.482363e-02) (0.000000e+00 0.000000e+00 0.000000e+00)) ((1.836307e+02 -1.036437e+02 -6.683611e+01) (1.915297e-01 7.171252e-01 -4.517642e+00) (0.000000e+00 0.000000e+00 0.000000e+00))
0.007         	((1.235576e+01 -8.314114e-04 0.000000e+00) (5.343100e-01 -4.042948e-06 4.934595e-03) (0.000000e+00 0.000000e+00 0.000000e+00)) ((8.270911e-05 1.235511e+00 -6.795951e+01) (2.714125e-02 2.078276e-02 -2.938714e+00) (0.000000e+00 0.000000e+00 0.000000e+00))	((1.225976e+01 -7.896126e-04 0.000000e+00) (3.866588e-01 -2.517549e-07 1.025060e-03) (0.000000e+00 0.000000e+00 0.000000e+00)) ((2.361622e-04 3.676089e+00 -6.743136e+01) (5.637823e-03 1.179536e-01 -2.126624e+00) (0.000000e+00 0.000000e+00 0.000000e+00))	((1.211197e+01 -7.134765e-04 0.000000e+00) (3.782786e-01 -2.914223e-08 2.257728e-03) (0.000000e+00 0.000000e+00 0.000000e+00)) ((3.555362e-04 6.054411e+00 -6.661827e+01) (1.241739e-02 1.919607e-01 -2.080531e+00) (0.000000e+00 0.000000e+00 0.000000e+00))	((1.209334e+01 -5.999199e-04 0.000000e+00) (3.713297e-01 -3.990156e-07 6.091889e-03) (0.000000e+00 0.000000e+00 0.000000e+00)) ((4.184622e-04 8.467616e+00 -6.651542e+01) (3.350540e-02 2.586042e-01 -2.042312e+00) (0.000000e+00 0.000000e+00 0.000000e+00))	((1.288165e+01 -4.731655e-04 3.347072e+01) (1.004233e+00 -8.471899e-07 4.665858e-02) (0.000000e+00 0.000000e+00 0.000000e+00)) ((1.840893e+02 -1.030705e+02 -7.085070e+01) (2.566220e-01 8.619781e-01 -5.523281e+00) (0.000000e+00 0.000000e+00 0.000000e+00))
0.008         	((1.298944e+01 -7.736152e-04 0.000000e+00) (6.408093e-01 -2.385403e-06 7.747236e-03) (0.000000e+00 0.000000e+00 0.000000e+00)) ((7.695998e-05 1.298756e+00 -7.144460e+01) (4.261047e-02 1.878455e-02 -3.524455e+00) (0.000000e+00 0.000000e+00 0.000000e+00))	((1.287561e+01 -7.341274e-04 0.000000e+00) (4.519039e-01 3.198634e-07 1.131493e-03) (0.000000e+00 0.000000e+00 0.000000e+00)) ((2.195588e-04 3.860606e+00 -7.081840e+01) (6.223056e-03 1.377891e-01 -2.485470e+00) (0.000000e+00 0.000000e+00 0.000000e+00))	((1.271283e+01 -6.629658e-04 0.000000e+00) (4.424587e-01 1.133338e-06 2.556352e-03) (0.000000e+00 0.000000e+00 0.000000e+00)) ((3.303691e-04 6.354733e+00 -6.992284e+01) (1.405935e-02 2.242135e-01 -2.433519e+00) (0.000000e+00 0.000000e+00 0.000000e+00))	((1.270178e+01 -5.468077e-04 0.000000e+00) (4.352459e-01 -1.784298e-07 7.333202e-03) (0.000000e+00 0.000000e+00 0.000000e+00)) ((3.809379e-04 8.894017e+00 -6.986165e+01) (4.033252e-02 3.013152e-01 -2.393850e+00) (0.000000e+00 0.000000e+00 0.000000e+00))	((1.356475e+01 -4.435039e-04 3.352619e+01) (1.204232e+00 -8.742243e-07 6.086202e-02) (0.000000e+00 0.000000e+00 0.000000e+00)) ((1.843943e+02 -1.024537e+02 -7.460768e+01) (3.347408e-01 1.016446e+00 -6.623277e+00) (0.000000e+00 0.000000e+00 0.000000e+00))
0.009         	((1.356189e+01 -6.648402e-04 0.000000e+00) (7.467128e-01 -4.075126e-07 1.113961e-02) (0.000000e+00 0.000000e+00 0.000000e+00)) ((6.607880e-05 1.355951e+00 -7.459266e+01) (6.126814e-02 1.486104e-02 -4.106918e+00) (0.000000e+00 0.000000e+00 0.000000e+00))	((1.343468e+01 -6.372822e-04 0.000000e+00) (5.165848e-01 9.935956e-07 1.207703e-03) (0.000000e+00 0.000000e+00 0.000000e+00)) ((1.907091e-04 4.028132e+00 -7.389290e+01) (6.642019e-03 1.575775e-01 -2.841213e+00) (0.000000e+00 0.000000e+00 0.000000e+00))	((1.326025e+01 -5.793649e-04 0.000000e+00) (5.056353e-01 1.090607e-06 2.818107e-03) (0.000000e+00 0.000000e+00 0.000000e+00)) ((2.886761e-04 6.628371e+00 -7.293333e+01) (1.549898e-02 2.561265e-01 -2.780990e+00) (0.000000e+00 0.000000e+00 0.000000e+00))	((1.325918e+01 -4.742894e-04 0.000000e+00) (4.974934e-01 4.806886e-07 8.619413e-03) (0.000000e+00 0.000000e+00 0.000000e+00)) ((3.308579e-04 9.284704e+00 -7.292708e+01) (4.740638e-02 3.427592e-01 -2.736208e+00) (0.000000e+00 0.000000e+00 0.000000e+00))	((1.419507e+01 -3.654015e-04 3.355756e+01) (1.395324e+00 -3.631465e-07 7.587319e-02) (0.000000e+00 0.000000e+00 0.000000e+00)) ((1.845668e+02 -1.018118e+02 -7.807415e+01) (4.173020e-01 1.159960e+00 -7.674280e+00) (0.000000e+00 0.000000e+00 0.000000e+00))
0.01          	((1.407007e+01 -5.767104e-04 0.000000e+00) (8.504685e-01 1.548208e-06 1.518013e-02) (0.000000e+00 0.000000e+00 0.000000e+00)) ((5.747892e-05 1.406776e+00 -7.738737e+01) (8.349068e-02 8.781381e-03 -4.677569e+00) (0.000000e+00 0.000000e+00 0.000000e+00))	((1.393313e+01 -5.682884e-04 0.000000e+00) (5.808124e-01 1.490618e-06 1.250160e-03) (0.000000e+00 0.000000e+00 0.000000e+00)) ((1.703856e-04 4.177520e+00 -7.663422e+01) (6.875382e-03 1.773597e-01 -3.194463e+00) (0.000000e+00 0.000000e+00 0.000000e+00))	((1.375104e+01 -5.455381e-04 0.000000e+00) (5.683910e-01 5.421365e-07 3.015639e-03) (0.000000e+00 0.000000e+00 0.000000e+00)) ((2.722115e-04 6.873751e+00 -7.563262e+01) (1.658558e-02 2.880688e-01 -3.126147e+00) (0.000000e+00 0.000000e+00 0.000000e+00))	((1.376306e+01 -4.865240e-04 0.000000e+00) (5.594019e-01 1.227975e-06 9.867473e-03) (0.000000e+00 0.000000e+00 0.000000e+00)) ((3.386575e-04 9.637951e+00 -7.569855e+01) (5.427029e-02 3.841032e-01 -3.076702e+00) (0.000000e+00 0.000000e+00 0.000000e+00))	((1.476925e+01 -3.419154e-04 3.356384e+01) (1.585511e+00 8.563831e-08 9.156435e-02) (0.000000e+00 0.000000e+00 0.000000e+00)) ((1.846014e+02 -1.011421e+02 -8.123206e+01) (5.036031e-01 1.300537e+00 -8.720306e+00) (0.000000e+00 0.000000e+00 0.000000e+00))
0.011         	((1.451415e+01 -4.811729e-04 0.000000e+00) (9.511789e-01 3.537558e-06 1.972400e-02) (0.000000e+00 0.000000e+00 0.000000e+00)) ((4.806215e-05 1.451259e+00 -7.982949e+01) (1.084816e-01 9.454935e-04 -5.231471e+00) (0.000000e+00 0.000000e+00 0.000000e+00))	((1.437180e+01 -4.756861e-04 0.000000e+00) (6.440097e-01 2.037749e-06 1.277403e-03) (0.000000e+00 0.000000e+00 0.000000e+00)) ((1.426610e-04 4.309017e+00 -7.904656e+01) (7.025050e-03 1.968954e-01 -3.542046e+00) (0.000000e+00 0.000000e+00 0.000000e+00))	((1.418604e+01 -4.427202e-04 0.000000e+00) (6.303621e-01 -3.711134e-07 3.179100e-03) (0.000000e+00 0.000000e+00 0.000000e+00)) ((2.202738e-04 7.091287e+00 -7.802479e+01) (1.748493e-02 3.197586e-01 -3.466990e+00) (0.000000e+00 0.000000e+00 0.000000e+00))	((1.421458e+01 -4.015697e-04 0.000000e+00) (6.207194e-01 1.910175e-06 1.114521e-02) (0.000000e+00 0.000000e+00 0.000000e+00)) ((2.799038e-04 9.954564e+00 -7.818164e+01) (6.129748e-02 4.249450e-01 -3.413946e+00) (0.000000e+00 0.000000e+00 0.000000e+00))	((1.528564e+01 -2.898919e-04 3.354733e+01) (1.773651e+00 4.859691e-07 1.082206e-01) (0.000000e+00 0.000000e+00 0.000000e+00)) ((1.845105e+02 -1.004555e+02 -8.407205e+01) (5.952122e-01 1.436178e+00 -9.755070e+00) (0.000000e+00 0.000000e+00 0.000000e+00))
0.012         	((1.489696e+01 -3.959635e-04 0.000000e+00) (1.048008e+00 5.461575e-06 2.468419e-02) (0.000000e+00 0.000000e+00 0.000000e+00)) ((3.955867e-05 1.489670e+00 -8.193466e+01) (1.357623e-01 -8.417633e-03 -5.764026e+00) (0.000000e+00 0.000000e+00 0.000000e+00))	((1.475334e+01 -3.983457e-04 0.000000e+00) (7.054547e-01 2.981209e-06 1.308537e-03) (0.000000e+00 0.000000e+00 0.000000e+00)) ((1.196119e-04 4.423423e+00 -8.114482e+01) (7.196037e-03 2.158862e-01 -3.879991e+00) (0.000000e+00 0.000000e+00 0.000000e+00))	((1.456696e+01 -3.857207e-04 0.000000e+00) (6.906305e-01 1.480623e-06 3.362544e-03) (0.000000e+00 0.000000e+00 0.000000e+00)) ((1.921778e-04 7.281806e+00 -8.011966e+01) (1.849314e-02 3.505090e-01 -3.798461e+00) (0.000000e+00 0.000000e+00 0.000000e+00))	((1.461373e+01 -3.726201e-04 0.000000e+00) (6.804868e-01 2.434602e-06 1.251746e-02) (0.000000e+00 0.000000e+00 0.000000e+00)) ((2.599773e-04 1.023451e+01 -8.037688e+01) (6.884444e-02 4.643060e-01 -3.742667e+00) (0.000000e+00 0.000000e+00 0.000000e+00))	((1.574681e+01 -2.571302e-04 3.352517e+01) (1.958284e+00 7.303581e-07 1.261704e-01) (0.000000e+00 0.000000e+00 0.000000e+00)) ((1.843886e+02 -9.980915e+01 -8.660839e+01) (6.939363e-01 1.564221e+00 -1.077055e+01) (0.000000e+00 0.000000e+00 0.000000e+00))
0.013         	((1.522101e+01 -3.563274e-04 0.000000e+00) (1.140341e+00 7.293319e-06 2.998645e-02) (0.000000e+00 0.000000e+00 0.000000e+00)) ((3.561833e-05 1.522282e+00 -8.371684e+01) (1.649244e-01 -1.909575e-02 -6.271850e+00) (0.000000e+00 0.000000e+00 0.000000e+00))	((1.508020e+01 -3.418676e-04 0.000000e+00) (7.650285e-01 3.734850e-06 1.319899e-03) (0.000000e+00 0.000000e+00 0.000000e+00)) ((1.023139e-04 4.521461e+00 -8.294236e+01) (7.258349e-03 2.343796e-01 -4.207644e+00) (0.000000e+00 0.000000e+00 0.000000e+00))	((1.489647e+01 -2.949813e-04 0.000000e+00) (7.492068e-01 4.134619e-06 3.520583e-03) (0.000000e+00 0.000000e+00 0.000000e+00)) ((1.463145e-04 7.446668e+00 -8.193168e+01) (1.936134e-02 3.804908e-01 -4.120624e+00) (0.000000e+00 0.000000e+00 0.000000e+00))	((1.496230e+01 -2.907464e-04 0.000000e+00) (7.383291e-01 2.436503e-06 1.383510e-02) (0.000000e+00 0.000000e+00 0.000000e+00)) ((2.054206e-04 1.047905e+01 -8.229372e+01) (7.609137e-02 5.023979e-01 -4.060802e+00) (0.000000e+00 0.000000e+00 0.000000e+00))	((1.615074e+01 -3.315087e-04 3.351264e+01) (2.138630e+00 5.609622e-07 1.449815e-01) (0.000000e+00 0.000000e+00 0.000000e+00)) ((1.843197e+02 -9.925851e+01 -8.883034e+01) (7.973973e-01 1.685375e+00 -1.176246e+01) (0.000000e+00 0.000000e+00 0.000000e+00))
0.014         	((1.548957e+01 -2.417775e-04 0.000000e+00) (1.227805e+00 9.161620e-06 3.555027e-02) (0.000000e+00 0.000000e+00 0.000000e+00)) ((2.426697e-05 1.549383e+00 -8.519353e+01) (1.955251e-01 -3.084526e-02 -6.752898e+00) (0.000000e+00 0.000000e+00 0.000000e+00))	((1.535483e+01 -2.293713e-04 0.000000e+00) (8.224397e-01 4.742031e-06 1.298892e-03) (0.000000e+00 0.000000e+00 0.000000e+00)) ((6.864360e-05 4.603868e+00 -8.445244e+01) (7.142560e-03 2.523216e-01 -4.523403e+00) (0.000000e+00 0.000000e+00 0.000000e+00))	((1.517574e+01 -1.989166e-04 0.000000e+00) (8.056616e-01 2.654576e-06 3.605155e-03) (0.000000e+00 0.000000e+00 0.000000e+00)) ((9.861095e-05 7.586417e+00 -8.346729e+01) (1.982707e-02 4.096280e-01 -4.431129e+00) (0.000000e+00 0.000000e+00 0.000000e+00))	((1.526232e+01 -1.632031e-04 0.000000e+00) (7.942432e-01 2.432541e-06 1.512779e-02) (0.000000e+00 0.000000e+00 0.000000e+00)) ((1.155550e-04 1.068961e+01 -8.394332e+01) (8.320134e-02 5.391403e-01 -4.368327e+00) (0.000000e+00 0.000000e+00 0.000000e+00))	((1.650048e+01 -2.674090e-04 3.349522e+01) (2.314186e+00 3.626975e-07 1.644593e-01) (0.000000e+00 0.000000e+00 0.000000e+00)) ((1.842238e+02 -9.875028e+01 -9.075370e+01) (9.045250e-01 1.799793e+00 -1.272802e+01) (0.000000e+00 0.000000e+00 0.000000e+00))
0.015         	((1.570494e+01 -1.956157e-04 0.000000e+00) (1.310187e+00 1.086502e-05 4.130054e-02) (0.000000e+00 0.000000e+00 0.000000e+00)) ((1.927745e-05 1.571200e+00 -8.637792e+01) (2.271513e-01 -4.342974e-02 -7.205993e+00) (0.000000e+00 0.000000e+00 0.000000e+00))	((1.557894e+01 -1.942256e-04 0.000000e+00) (8.776914e-01 4.880436e-06 1.266168e-03) (0.000000e+00 0.000000e+00 0.000000e+00)) ((5.810224e-05 4.671146e+00 -8.568489e+01) (6.962517e-03 2.696474e-01 -4.827287e+00) (0.000000e+00 0.000000e+00 0.000000e+00))	((1.540706e+01 -1.755046e-04 0.000000e+00) (8.600648e-01 9.843155e-07 3.663821e-03) (0.000000e+00 0.000000e+00 0.000000e+00)) ((8.729231e-05 7.702221e+00 -8.473948e+01) (2.015041e-02 4.378063e-01 -4.730350e+00) (0.000000e+00 0.000000e+00 0.000000e+00))	((1.551600e+01 -1.672116e-04 0.000000e+00) (8.481636e-01 2.890076e-06 1.642325e-02) (0.000000e+00 0.000000e+00 0.000000e+00)) ((1.165707e-04 1.086775e+01 -8.533863e+01) (9.032629e-02 5.743906e-01 -4.664886e+00) (0.000000e+00 0.000000e+00 0.000000e+00))	((1.679812e+01 -1.818593e-04 3.347327e+01) (2.484768e+00 2.088560e-07 1.847787e-01) (0.000000e+00 0.000000e+00 0.000000e+00)) ((1.841031e+02 -9.828276e+01 -9.239036e+01) (1.016282e+00 1.906716e+00 -1.366623e+01) (0.000000e+00 0.000000e+00 0.000000e+00))
0.016         	((1.587256e+01 -1.203947e-04 0.000000e+00) (1.387327e+00 1.252053e-05 4.716305e-02) (0.000000e+00 0.000000e+00 0.000000e+00)) ((1.182581e-05 1.588275e+00 -8.729959e+01) (2.593948e-01 -5.662040e-02 -7.630256e+00) (0.000000e+00 0.000000e+00 0.000000e+00))	((1.575803e+01 -1.141512e-04 0.000000e+00) (9.307135e-01 4.859138e-06 1.225589e-03) (0.000000e+00 0.000000e+00 0.000000e+00)) ((3.404998e-05 4.724957e+00 -8.666964e+01) (6.739306e-03 2.863216e-01 -5.118908e+00) (0.000000e+00 0.000000e+00 0.000000e+00))	((1.559606e+01 -9.713858e-05 0.000000e+00) (9.123502e-01 -9.207111e-07 3.703263e-03) (0.000000e+00 0.000000e+00 0.000000e+00)) ((4.828137e-05 7.796907e+00 -8.577871e+01) (2.036811e-02 4.649685e-01 -5.017925e+00) (0.000000e+00 0.000000e+00 0.000000e+00))	((1.573024e+01 -1.086066e-04 0.000000e+00) (9.000674e-01 3.802024e-06 1.774012e-02) (0.000000e+00 0.000000e+00 0.000000e+00)) ((7.637407e-05 1.101831e+01 -8.651674e+01) (9.756865e-02 6.080741e-01 -4.950351e+00) (0.000000e+00 0.000000e+00 0.000000e+00))	((1.704798e+01 -4.560253e-05 3.344617e+01) (2.650205e+00 1.089019e-06 2.059468e-01) (0.000000e+00 0.000000e+00 0.000000e+00)) ((1.839539e+02 -9.784997e+01 -9.376406e+01) (1.132706e+00 2.005924e+00 -1.457612e+01) (0.000000e+00 0.000000e+00 0.000000e+00))
0.017         	((1.599656e+01 -8.082162e-05 0.000000e+00) (1.459074e+00 1.395918e-05 5.310029e-02) (0.000000e+00 0.000000e+00 0.000000e+00)) ((7.894415e-06 1.601014e+00 -8.798147e+01) (2.920493e-01 -7.029767e-02 -8.024860e+00) (0.000000e+00 0.000000e+00 0.000000e+00))	((1.589519e+01 -8.842103e-05 0.000000e+00) (9.814666e-01 4.708853e-06 1.180901e-03) (0.000000e+00 0.000000e+00 0.000000e+00)) ((2.659642e-05 4.766206e+00 -8.742397e+01) (6.493527e-03 3.023181e-01 -5.398050e+00) (0.000000e+00 0.000000e+00 0.000000e+00))	((1.574471e+01 -1.122861e-04 0.000000e+00) (9.624656e-01 1.789499e-06 3.726279e-03) (0.000000e+00 0.000000e+00 0.000000e+00)) ((5.672064e-05 7.871432e+00 -8.659642e+01) (2.049367e-02 4.910747e-01 -5.293552e+00) (0.000000e+00 0.000000e+00 0.000000e+00))	((1.590472e+01 -1.276847e-04 0.000000e+00) (9.498849e-01 4.094665e-06 1.907456e-02) (0.000000e+00 0.000000e+00 0.000000e+00)) ((8.851820e-05 1.114100e+01 -8.747648e+01) (1.049078e-01 6.401474e-01 -5.224347e+00) (0.000000e+00 0.000000e+00 0.000000e+00))	((1.725148e+01 -2.548076e-05 3.341537e+01) (2.810286e+00 1.953359e-06 2.279673e-01) (0.000000e+00 0.000000e+00 0.000000e+00)) ((1.837845e+02 -9.745526e+01 -9.488325e+01) (1.253819e+00 2.097176e+00 -1.545656e+01) (0.000000e+00 0.000000e+00 0.000000e+00))
0.018         	((1.608191e+01 -3.308045e-05 0.000000e+00) (1.525430e+00 1.504669e-05 5.901802e-02) (0.000000e+00 0.000000e+00 0.000000e+00)) ((3.218123e-06 1.609891e+00 -8.845075e+01) (3.245965e-01 -8.416712e-02 -8.389816e+00) (0.000000e+00 0.000000e+00 0.000000e+00))	((1.599603e+01 -4.554993e-05 0.000000e+00) (1.029975e+00 4.385954e-06 1.140587e-03) (0.000000e+00 0.000000e+00 0.000000e+00)) ((1.388126e-05 4.796579e+00 -8.797844e+01) (6.271850e-03 3.176158e-01 -5.664849e+00) (0.000000e+00 0.000000e+00 0.000000e+00))	((1.585700e+01 -9.522291e-05 0.000000e+00) (1.010402e+00 4.715934e-06 3.741090e-03) (0.000000e+00 0.000000e+00 0.000000e+00)) ((4.874972e-05 7.927749e+00 -8.721393e+01) (2.057399e-02 5.160911e-01 -5.557196e+00) (0.000000e+00 0.000000e+00 0.000000e+00))	((1.604191e+01 -2.352010e-04 0.000000e+00) (9.975363e-01 4.793228e-06 2.041744e-02) (0.000000e+00 0.000000e+00 0.000000e+00)) ((1.659979e-04 1.123761e+01 -8.823150e+01) (1.122933e-01 6.705816e-01 -5.486427e+00) (0.000000e+00 0.000000e+00 0.000000e+00))	((1.741012e+01 -4.805182e-05 3.337857e+01) (2.964783e+00 2.901670e-06 2.507255e-01) (0.000000e+00 0.000000e+00 0.000000e+00)) ((1.835822e+02 -9.708928e+01 -9.575587e+01) (1.378988e+00 2.180558e+00 -1.630629e+01) (0.000000e+00 0.000000e+00 0.000000e+00))
0.019         	((1.613143e+01 6.660334e-05 0.000000e+00) (1.586496e+00 1.585024e-05 6.486385e-02) (0.000000e+00 0.000000e+00 0.000000e+00)) ((-6.702324e-06 1.615197e+00 -8.872276e+01) (3.567484e-01 -9.807083e-02 -8.725678e+00) (0.000000e+00 0.000000e+00 0.000000e+00))	((1.606231e+01 5.509728e-05 0.000000e+00) (1.076190e+00 3.284533e-06 1.105192e-03) (0.000000e+00 0.000000e+00 0.000000e+00)) ((-1.619852e-05 4.816606e+00 -8.834260e+01) (6.077418e-03 3.321960e-01 -5.919034e+00) (0.000000e+00 0.000000e+00 0.000000e+00))	((1.593731e+01 4.045606e-05 0.000000e+00) (1.056165e+00 7.886092e-06 3.757841e-03) (0.000000e+00 0.000000e+00 0.000000e+00)) ((-2.007808e-05 7.968121e+00 -8.765518e+01) (2.066492e-02 5.399879e-01 -5.808881e+00) (0.000000e+00 0.000000e+00 0.000000e+00))	((1.614696e+01 -2.401778e-05 0.000000e+00) (1.043029e+00 4.706725e-06 2.177557e-02) (0.000000e+00 0.000000e+00 0.000000e+00)) ((1.526094e-05 1.131169e+01 -8.880847e+01) (1.197631e-01 6.993613e-01 -5.736637e+00) (0.000000e+00 0.000000e+00 0.000000e+00))	((1.752804e+01 6.919022e-05 3.333666e+01) (3.113591e+00 3.874741e-06 2.741691e-01) (0.000000e+00 0.000000e+00 0.000000e+00)) ((1.833516e+02 -9.675062e+01 -9.640396e+01) (1.507928e+00 2.256088e+00 -1.712472e+01) (0.000000e+00 0.000000e+00 0.000000e+00))
0.02          	((1.615195e+01 1.091609e-04 0.000000e+00) (1.642383e+00 1.638345e-05 7.058778e-02) (0.000000e+00 0.000000e+00 0.000000e+00)) ((-1.076841e-05 1.617634e+00 -8.883545e+01) (3.882299e-01 -1.118452e-01 -9.033052e+00) (0.000000e+00 0.000000e+00 0.000000e+00))	((1.609989e+01 1.025558e-04 0.000000e+00) (1.120162e+00 3.772233e-06 1.081968e-03) (0.000000e+00 0.000000e+00 0.000000e+00)) ((-3.088868e-05 4.828018e+00 -8.854917e+01) (5.949597e-03 3.460490e-01 -6.160878e+00) (0.000000e+00 0.000000e+00 0.000000e+00))	((1.598840e+01 1.462625e-04 0.000000e+00) (1.099730e+00 5.248601e-06 3.775841e-03) (0.000000e+00 0.000000e+00 0.000000e+00)) ((-7.448168e-05 7.993885e+00 -8.793576e+01) (2.076495e-02 5.627499e-01 -6.048498e+00) (0.000000e+00 0.000000e+00 0.000000e+00))	((1.622444e+01 2.134550e-04 0.000000e+00) (1.086378e+00 3.027177e-06 2.315007e-02) (0.000000e+00 0.000000e+00 0.000000e+00)) ((-1.472385e-04 1.136651e+01 -8.923367e+01) (1.273236e-01 7.264956e-01 -5.975070e+00) (0.000000e+00 0.000000e+00 0.000000e+00))	((1.761135e+01 1.540590e-04 3.329035e+01) (3.256822e+00 4.034142e-06 2.983473e-01) (0.000000e+00 0.000000e+00 0.000000e+00)) ((1.830968e+02 -9.643583e+01 -9.686190e+01) (1.640908e+00 2.323687e+00 -1.791250e+01) (0.000000e+00 0.000000e+00 0.000000e+00))
0.021         	((1.614631e+01 1.686702e-04 0.000000e+00) (1.693123e+00 1.670376e-05 7.613637e-02) (0.000000e+00 0.000000e+00 0.000000e+00)) ((-1.682597e-05 1.617443e+00 -8.880425e+01) (4.187470e-01 -1.253205e-01 -9.312122e+00) (0.000000e+00 0.000000e+00 0.000000e+00))	((1.611151e+01 1.574074e-04 0.000000e+00) (1.161924e+00 4.529262e-06 1.071177e-03) (0.000000e+00 0.000000e+00 0.000000e+00)) ((-4.719131e-05 4.831649e+00 -8.861287e+01) (5.890096e-03 3.591819e-01 -6.390568e+00) (0.000000e+00 0.000000e+00 0.000000e+00))	((1.601407e+01 1.883621e-04 0.000000e+00) (1.141151e+00 2.377655e-06 3.796041e-03) (0.000000e+00 0.000000e+00 0.000000e+00)) ((-9.528797e-05 8.006933e+00 -8.807677e+01) (2.087727e-02 5.843980e-01 -6.276319e+00) (0.000000e+00 0.000000e+00 0.000000e+00))	((1.627748e+01 2.495916e-04 0.000000e+00) (1.127645e+00 1.775469e-06 2.454874e-02) (0.000000e+00 0.000000e+00 0.000000e+00)) ((-1.693927e-04 1.140424e+01 -8.952525e+01) (1.350168e-01 7.520044e-01 -6.202048e+00) (0.000000e+00 0.000000e+00 0.000000e+00))	((1.766216e+01 6.195889e-05 3.323768e+01) (3.394421e+00 4.707551e-06 3.231402e-01) (0.000000e+00 0.000000e+00 0.000000e+00)) ((1.828072e+02 -9.613625e+01 -9.714175e+01) (1.777269e+00 2.383638e+00 -1.866929e+01) (0.000000e+00 0.000000e+00 0.000000e+00))
0.022         	((1.611611e+01 2.810322e-04 0.000000e+00) (1.738860e+00 1.689415e-05 8.147738e-02) (0.000000e+00 0.000000e+00 0.000000e+00)) ((-2.793158e-05 1.614774e+00 -8.863773e+01) (4.481224e-01 -1.383957e-01 -9.563674e+00) (0.000000e+00 0.000000e+00 0.000000e+00))	((1.609928e+01 2.469972e-04 0.000000e+00) (1.201464e+00 5.355364e-06 1.078021e-03) (0.000000e+00 0.000000e+00 0.000000e+00)) ((-7.387812e-05 4.828134e+00 -8.854530e+01) (5.927565e-03 3.715708e-01 -6.608031e+00) (0.000000e+00 0.000000e+00 0.000000e+00))	((1.601649e+01 2.707306e-04 0.000000e+00) (1.180439e+00 -1.187670e-06 3.828220e-03) (0.000000e+00 0.000000e+00 0.000000e+00)) ((-1.362044e-04 8.008362e+00 -8.808988e+01) (2.105571e-02 6.049052e-01 -6.492415e+00) (0.000000e+00 0.000000e+00 0.000000e+00))	((1.630669e+01 1.571577e-04 0.000000e+00) (1.166775e+00 2.077225e-06 2.593691e-02) (0.000000e+00 0.000000e+00 0.000000e+00)) ((-1.089947e-04 1.142528e+01 -8.968634e+01) (1.426519e-01 7.759523e-01 -6.417257e+00) (0.000000e+00 0.000000e+00 0.000000e+00))	((1.768265e+01 8.239914e-05 3.318179e+01) (3.526435e+00 5.350232e-06 3.484750e-01) (0.000000e+00 0.000000e+00 0.000000e+00)) ((1.824998e+02 -9.586016e+01 -9.725437e+01) (1.916610e+00 2.436183e+00 -1.939536e+01) (0.000000e+00 0.000000e+00 0.000000e+00))