/*--------------------------------*- C++ -*----------------------------------*\
  =========                 |
  \\      /  F ield         | OpenFOAM: The Open Source CFD Toolbox
   \\    /   O peration     | Website:  https://openfoam.org
    \\  /    A nd           | Version:  10
     \\/     M anipulation  |
\*---------------------------------------------------------------------------*/
FoamFile
{
    format      ascii;
    class       volVectorField;
    object      U;
}
// * * * * * * * * * * * * * * * * * * * * * * * * * * * * * * * * * * * * * //


dimensions      [0 1 -1 0 0 0 0];

internalField   uniform (10 0 0);

boundaryField
{
    inlet
    {
    }

    outlet
    {
    }

    ground 
    {
    }
    
    top    
    {
    }

    front    
    {
    }
    
    back    
    {
    }
    
    building 
    {
    }
}

// ************************************************************************* //
